<?xml version="1.0"?>
<VTKFile type="UnstructuredGrid"  version="0.1"  >
<UnstructuredGrid>
<Piece  NumberOfPoints="10201" NumberOfCells="20000">
<Points>
<DataArray  type="Float64"  NumberOfComponents="3"  format="ascii">0 0 0  0.015 0 0  0.03 0 0  0.045 0 0  0.06 0 0  0.075 0 0  0.09 0 0  0.105 0 0  0.12 0 0  0.135 0 0  0.15 0 0  0.165 0 0  0.18 0 0  0.195 0 0  0.21 0 0  0.225 0 0  0.24 0 0  0.255 0 0  0.27 0 0  0.285 0 0  0.3 0 0  0.315 0 0  0.33 0 0  0.345 0 0  0.36 0 0  0.375 0 0  0.39 0 0  0.405 0 0  0.42 0 0  0.435 0 0  0.45 0 0  0.465 0 0  0.48 0 0  0.495 0 0  0.51 0 0  0.525 0 0  0.54 0 0  0.555 0 0  0.57 0 0  0.585 0 0  0.6 0 0  0.615 0 0  0.63 0 0  0.645 0 0  0.66 0 0  0.675 0 0  0.6899999999999999 0 0  0.705 0 0  0.72 0 0  0.735 0 0  0.75 0 0  0.765 0 0  0.78 0 0  0.795 0 0  0.8100000000000001 0 0  0.825 0 0  0.84 0 0  0.855 0 0  0.87 0 0  0.885 0 0  0.9 0 0  0.915 0 0  0.93 0 0  0.945 0 0  0.96 0 0  0.975 0 0  0.99 0 0  1.005 0 0  1.02 0 0  1.035 0 0  1.05 0 0  1.065 0 0  1.08 0 0  1.095 0 0  1.11 0 0  1.125 0 0  1.14 0 0  1.155 0 0  1.17 0 0  1.185 0 0  1.2 0 0  1.215 0 0  1.23 0 0  1.245 0 0  1.26 0 0  1.275 0 0  1.29 0 0  1.305 0 0  1.32 0 0  1.335 0 0  1.35 0 0  1.365 0 0  1.38 0 0  1.395 0 0  1.41 0 0  1.425 0 0  1.44 0 0  1.455 0 0  1.47 0 0  1.485 0 0  1.5 0 0  0 0.01 0  0.015 0.01 0  0.03 0.01 0  0.045 0.01 0  0.06 0.01 0  0.075 0.01 0  0.09 0.01 0  0.105 0.01 0  0.12 0.01 0  0.135 0.01 0  0.15 0.01 0  0.165 0.01 0  0.18 0.01 0  0.195 0.01 0  0.21 0.01 0  0.225 0.01 0  0.24 0.01 0  0.255 0.01 0  0.27 0.01 0  0.285 0.01 0  0.3 0.01 0  0.315 0.01 0  0.33 0.01 0  0.345 0.01 0  0.36 0.01 0  0.375 0.01 0  0.39 0.01 0  0.405 0.01 0  0.42 0.01 0  0.435 0.01 0  0.45 0.01 0  0.465 0.01 0  0.48 0.01 0  0.495 0.01 0  0.51 0.01 0  0.525 0.01 0  0.54 0.01 0  0.555 0.01 0  0.57 0.01 0  0.585 0.01 0  0.6 0.01 0  0.615 0.01 0  0.63 0.01 0  0.645 0.01 0  0.66 0.01 0  0.675 0.01 0  0.6899999999999999 0.01 0  0.705 0.01 0  0.72 0.01 0  0.735 0.01 0  0.75 0.01 0  0.765 0.01 0  0.78 0.01 0  0.795 0.01 0  0.8100000000000001 0.01 0  0.825 0.01 0  0.84 0.01 0  0.855 0.01 0  0.87 0.01 0  0.885 0.01 0  0.9 0.01 0  0.915 0.01 0  0.93 0.01 0  0.945 0.01 0  0.96 0.01 0  0.975 0.01 0  0.99 0.01 0  1.005 0.01 0  1.02 0.01 0  1.035 0.01 0  1.05 0.01 0  1.065 0.01 0  1.08 0.01 0  1.095 0.01 0  1.11 0.01 0  1.125 0.01 0  1.14 0.01 0  1.155 0.01 0  1.17 0.01 0  1.185 0.01 0  1.2 0.01 0  1.215 0.01 0  1.23 0.01 0  1.245 0.01 0  1.26 0.01 0  1.275 0.01 0  1.29 0.01 0  1.305 0.01 0  1.32 0.01 0  1.335 0.01 0  1.35 0.01 0  1.365 0.01 0  1.38 0.01 0  1.395 0.01 0  1.41 0.01 0  1.425 0.01 0  1.44 0.01 0  1.455 0.01 0  1.47 0.01 0  1.485 0.01 0  1.5 0.01 0  0 0.02 0  0.015 0.02 0  0.03 0.02 0  0.045 0.02 0  0.06 0.02 0  0.075 0.02 0  0.09 0.02 0  0.105 0.02 0  0.12 0.02 0  0.135 0.02 0  0.15 0.02 0  0.165 0.02 0  0.18 0.02 0  0.195 0.02 0  0.21 0.02 0  0.225 0.02 0  0.24 0.02 0  0.255 0.02 0  0.27 0.02 0  0.285 0.02 0  0.3 0.02 0  0.315 0.02 0  0.33 0.02 0  0.345 0.02 0  0.36 0.02 0  0.375 0.02 0  0.39 0.02 0  0.405 0.02 0  0.42 0.02 0  0.435 0.02 0  0.45 0.02 0  0.465 0.02 0  0.48 0.02 0  0.495 0.02 0  0.51 0.02 0  0.525 0.02 0  0.54 0.02 0  0.555 0.02 0  0.57 0.02 0  0.585 0.02 0  0.6 0.02 0  0.615 0.02 0  0.63 0.02 0  0.645 0.02 0  0.66 0.02 0  0.675 0.02 0  0.6899999999999999 0.02 0  0.705 0.02 0  0.72 0.02 0  0.735 0.02 0  0.75 0.02 0  0.765 0.02 0  0.78 0.02 0  0.795 0.02 0  0.8100000000000001 0.02 0  0.825 0.02 0  0.84 0.02 0  0.855 0.02 0  0.87 0.02 0  0.885 0.02 0  0.9 0.02 0  0.915 0.02 0  0.93 0.02 0  0.945 0.02 0  0.96 0.02 0  0.975 0.02 0  0.99 0.02 0  1.005 0.02 0  1.02 0.02 0  1.035 0.02 0  1.05 0.02 0  1.065 0.02 0  1.08 0.02 0  1.095 0.02 0  1.11 0.02 0  1.125 0.02 0  1.14 0.02 0  1.155 0.02 0  1.17 0.02 0  1.185 0.02 0  1.2 0.02 0  1.215 0.02 0  1.23 0.02 0  1.245 0.02 0  1.26 0.02 0  1.275 0.02 0  1.29 0.02 0  1.305 0.02 0  1.32 0.02 0  1.335 0.02 0  1.35 0.02 0  1.365 0.02 0  1.38 0.02 0  1.395 0.02 0  1.41 0.02 0  1.425 0.02 0  1.44 0.02 0  1.455 0.02 0  1.47 0.02 0  1.485 0.02 0  1.5 0.02 0  0 0.03 0  0.015 0.03 0  0.03 0.03 0  0.045 0.03 0  0.06 0.03 0  0.075 0.03 0  0.09 0.03 0  0.105 0.03 0  0.12 0.03 0  0.135 0.03 0  0.15 0.03 0  0.165 0.03 0  0.18 0.03 0  0.195 0.03 0  0.21 0.03 0  0.225 0.03 0  0.24 0.03 0  0.255 0.03 0  0.27 0.03 0  0.285 0.03 0  0.3 0.03 0  0.315 0.03 0  0.33 0.03 0  0.345 0.03 0  0.36 0.03 0  0.375 0.03 0  0.39 0.03 0  0.405 0.03 0  0.42 0.03 0  0.435 0.03 0  0.45 0.03 0  0.465 0.03 0  0.48 0.03 0  0.495 0.03 0  0.51 0.03 0  0.525 0.03 0  0.54 0.03 0  0.555 0.03 0  0.57 0.03 0  0.585 0.03 0  0.6 0.03 0  0.615 0.03 0  0.63 0.03 0  0.645 0.03 0  0.66 0.03 0  0.675 0.03 0  0.6899999999999999 0.03 0  0.705 0.03 0  0.72 0.03 0  0.735 0.03 0  0.75 0.03 0  0.765 0.03 0  0.78 0.03 0  0.795 0.03 0  0.8100000000000001 0.03 0  0.825 0.03 0  0.84 0.03 0  0.855 0.03 0  0.87 0.03 0  0.885 0.03 0  0.9 0.03 0  0.915 0.03 0  0.93 0.03 0  0.945 0.03 0  0.96 0.03 0  0.975 0.03 0  0.99 0.03 0  1.005 0.03 0  1.02 0.03 0  1.035 0.03 0  1.05 0.03 0  1.065 0.03 0  1.08 0.03 0  1.095 0.03 0  1.11 0.03 0  1.125 0.03 0  1.14 0.03 0  1.155 0.03 0  1.17 0.03 0  1.185 0.03 0  1.2 0.03 0  1.215 0.03 0  1.23 0.03 0  1.245 0.03 0  1.26 0.03 0  1.275 0.03 0  1.29 0.03 0  1.305 0.03 0  1.32 0.03 0  1.335 0.03 0  1.35 0.03 0  1.365 0.03 0  1.38 0.03 0  1.395 0.03 0  1.41 0.03 0  1.425 0.03 0  1.44 0.03 0  1.455 0.03 0  1.47 0.03 0  1.485 0.03 0  1.5 0.03 0  0 0.04 0  0.015 0.04 0  0.03 0.04 0  0.045 0.04 0  0.06 0.04 0  0.075 0.04 0  0.09 0.04 0  0.105 0.04 0  0.12 0.04 0  0.135 0.04 0  0.15 0.04 0  0.165 0.04 0  0.18 0.04 0  0.195 0.04 0  0.21 0.04 0  0.225 0.04 0  0.24 0.04 0  0.255 0.04 0  0.27 0.04 0  0.285 0.04 0  0.3 0.04 0  0.315 0.04 0  0.33 0.04 0  0.345 0.04 0  0.36 0.04 0  0.375 0.04 0  0.39 0.04 0  0.405 0.04 0  0.42 0.04 0  0.435 0.04 0  0.45 0.04 0  0.465 0.04 0  0.48 0.04 0  0.495 0.04 0  0.51 0.04 0  0.525 0.04 0  0.54 0.04 0  0.555 0.04 0  0.57 0.04 0  0.585 0.04 0  0.6 0.04 0  0.615 0.04 0  0.63 0.04 0  0.645 0.04 0  0.66 0.04 0  0.675 0.04 0  0.6899999999999999 0.04 0  0.705 0.04 0  0.72 0.04 0  0.735 0.04 0  0.75 0.04 0  0.765 0.04 0  0.78 0.04 0  0.795 0.04 0  0.8100000000000001 0.04 0  0.825 0.04 0  0.84 0.04 0  0.855 0.04 0  0.87 0.04 0  0.885 0.04 0  0.9 0.04 0  0.915 0.04 0  0.93 0.04 0  0.945 0.04 0  0.96 0.04 0  0.975 0.04 0  0.99 0.04 0  1.005 0.04 0  1.02 0.04 0  1.035 0.04 0  1.05 0.04 0  1.065 0.04 0  1.08 0.04 0  1.095 0.04 0  1.11 0.04 0  1.125 0.04 0  1.14 0.04 0  1.155 0.04 0  1.17 0.04 0  1.185 0.04 0  1.2 0.04 0  1.215 0.04 0  1.23 0.04 0  1.245 0.04 0  1.26 0.04 0  1.275 0.04 0  1.29 0.04 0  1.305 0.04 0  1.32 0.04 0  1.335 0.04 0  1.35 0.04 0  1.365 0.04 0  1.38 0.04 0  1.395 0.04 0  1.41 0.04 0  1.425 0.04 0  1.44 0.04 0  1.455 0.04 0  1.47 0.04 0  1.485 0.04 0  1.5 0.04 0  0 0.05 0  0.015 0.05 0  0.03 0.05 0  0.045 0.05 0  0.06 0.05 0  0.075 0.05 0  0.09 0.05 0  0.105 0.05 0  0.12 0.05 0  0.135 0.05 0  0.15 0.05 0  0.165 0.05 0  0.18 0.05 0  0.195 0.05 0  0.21 0.05 0  0.225 0.05 0  0.24 0.05 0  0.255 0.05 0  0.27 0.05 0  0.285 0.05 0  0.3 0.05 0  0.315 0.05 0  0.33 0.05 0  0.345 0.05 0  0.36 0.05 0  0.375 0.05 0  0.39 0.05 0  0.405 0.05 0  0.42 0.05 0  0.435 0.05 0  0.45 0.05 0  0.465 0.05 0  0.48 0.05 0  0.495 0.05 0  0.51 0.05 0  0.525 0.05 0  0.54 0.05 0  0.555 0.05 0  0.57 0.05 0  0.585 0.05 0  0.6 0.05 0  0.615 0.05 0  0.63 0.05 0  0.645 0.05 0  0.66 0.05 0  0.675 0.05 0  0.6899999999999999 0.05 0  0.705 0.05 0  0.72 0.05 0  0.735 0.05 0  0.75 0.05 0  0.765 0.05 0  0.78 0.05 0  0.795 0.05 0  0.8100000000000001 0.05 0  0.825 0.05 0  0.84 0.05 0  0.855 0.05 0  0.87 0.05 0  0.885 0.05 0  0.9 0.05 0  0.915 0.05 0  0.93 0.05 0  0.945 0.05 0  0.96 0.05 0  0.975 0.05 0  0.99 0.05 0  1.005 0.05 0  1.02 0.05 0  1.035 0.05 0  1.05 0.05 0  1.065 0.05 0  1.08 0.05 0  1.095 0.05 0  1.11 0.05 0  1.125 0.05 0  1.14 0.05 0  1.155 0.05 0  1.17 0.05 0  1.185 0.05 0  1.2 0.05 0  1.215 0.05 0  1.23 0.05 0  1.245 0.05 0  1.26 0.05 0  1.275 0.05 0  1.29 0.05 0  1.305 0.05 0  1.32 0.05 0  1.335 0.05 0  1.35 0.05 0  1.365 0.05 0  1.38 0.05 0  1.395 0.05 0  1.41 0.05 0  1.425 0.05 0  1.44 0.05 0  1.455 0.05 0  1.47 0.05 0  1.485 0.05 0  1.5 0.05 0  0 0.06 0  0.015 0.06 0  0.03 0.06 0  0.045 0.06 0  0.06 0.06 0  0.075 0.06 0  0.09 0.06 0  0.105 0.06 0  0.12 0.06 0  0.135 0.06 0  0.15 0.06 0  0.165 0.06 0  0.18 0.06 0  0.195 0.06 0  0.21 0.06 0  0.225 0.06 0  0.24 0.06 0  0.255 0.06 0  0.27 0.06 0  0.285 0.06 0  0.3 0.06 0  0.315 0.06 0  0.33 0.06 0  0.345 0.06 0  0.36 0.06 0  0.375 0.06 0  0.39 0.06 0  0.405 0.06 0  0.42 0.06 0  0.435 0.06 0  0.45 0.06 0  0.465 0.06 0  0.48 0.06 0  0.495 0.06 0  0.51 0.06 0  0.525 0.06 0  0.54 0.06 0  0.555 0.06 0  0.57 0.06 0  0.585 0.06 0  0.6 0.06 0  0.615 0.06 0  0.63 0.06 0  0.645 0.06 0  0.66 0.06 0  0.675 0.06 0  0.6899999999999999 0.06 0  0.705 0.06 0  0.72 0.06 0  0.735 0.06 0  0.75 0.06 0  0.765 0.06 0  0.78 0.06 0  0.795 0.06 0  0.8100000000000001 0.06 0  0.825 0.06 0  0.84 0.06 0  0.855 0.06 0  0.87 0.06 0  0.885 0.06 0  0.9 0.06 0  0.915 0.06 0  0.93 0.06 0  0.945 0.06 0  0.96 0.06 0  0.975 0.06 0  0.99 0.06 0  1.005 0.06 0  1.02 0.06 0  1.035 0.06 0  1.05 0.06 0  1.065 0.06 0  1.08 0.06 0  1.095 0.06 0  1.11 0.06 0  1.125 0.06 0  1.14 0.06 0  1.155 0.06 0  1.17 0.06 0  1.185 0.06 0  1.2 0.06 0  1.215 0.06 0  1.23 0.06 0  1.245 0.06 0  1.26 0.06 0  1.275 0.06 0  1.29 0.06 0  1.305 0.06 0  1.32 0.06 0  1.335 0.06 0  1.35 0.06 0  1.365 0.06 0  1.38 0.06 0  1.395 0.06 0  1.41 0.06 0  1.425 0.06 0  1.44 0.06 0  1.455 0.06 0  1.47 0.06 0  1.485 0.06 0  1.5 0.06 0  0 0.07000000000000001 0  0.015 0.07000000000000001 0  0.03 0.07000000000000001 0  0.045 0.07000000000000001 0  0.06 0.07000000000000001 0  0.075 0.07000000000000001 0  0.09 0.07000000000000001 0  0.105 0.07000000000000001 0  0.12 0.07000000000000001 0  0.135 0.07000000000000001 0  0.15 0.07000000000000001 0  0.165 0.07000000000000001 0  0.18 0.07000000000000001 0  0.195 0.07000000000000001 0  0.21
[...]
<PointData  Scalars="ControlVisualisation"> 
<DataArray  type="Float64"  Name="ControlVisualisation"  format="ascii">2.7600439267787313e-01  1.9495310146736694e-01  1.9494805086373043e-01  1.9493597388209288e-01  1.9491937589230035e-01  1.9490492015661598e-01  1.9490020630735172e-01  1.9491086686258274e-01  1.9493905609728615e-01  1.9498344550973784e-01  1.9504023255256497e-01  1.9510448224599594e-01  1.9517128602452199e-01  1.9523650799415820e-01  1.9529711462270505e-01  1.9535119652278482e-01  1.9539781303807030e-01  1.9543676556650696e-01  1.9546836786689806e-01  1.9549324858951328e-01  1.9551219851290097e-01  1.9552606186989566e-01  1.9553566503749706e-01  1.9554177404395545e-01  1.9554507277239730e-01  1.9554615511685869e-01  1.9554552593317770e-01  1.9554360707951882e-01  1.9554074602034230e-01  1.9553722535763990e-01  1.9553327229236755e-01  1.9552906745453946e-01  1.9552475282801202e-01  1.9552043867446639e-01  1.9551620946726742e-01  1.9551212890603770e-01  1.9550824410731399e-01  1.9550458907734916e-01  1.9550118756997523e-01  1.9549805542514870e-01  1.9549520247268745e-01  1.9549263407491879e-01  1.9549035237100854e-01  1.9548835727522126e-01  1.9548664727410547e-01  1.9548522005693558e-01  1.9548407300997828e-01  1.9548320359746341e-01  1.9548260964754621e-01  1.9548228955776226e-01  1.9548224242973783e-01  1.9548246814044143e-01  1.9548296735306506e-01  1.9548374146842773e-01  1.9548479251434858e-01  1.9548612296739801e-01  1.9548773549801679e-01  1.9548963262643237e-01  1.9549181627295317e-01  1.9549428718050921e-01  1.9549704418311858e-01  1.9550008328660942e-01  1.9550339652084231e-01  1.9550697051476928e-01  1.9551078473424410e-01  1.9551480931518547e-01  1.9551900240956882e-01  1.9552330695439696e-01  1.9552764676214113e-01  1.9553192182795004e-01  1.9553600275163818e-01  1.9553972419206603e-01  1.9554287731558978e-01  1.9554520128604241e-01  1.9554637399117189e-01  1.9554600243988740e-01  1.9554361363883044e-01  1.9553864730986897e-01  1.9553045260027530e-01  1.9551829200373316e-01  1.9550135707583369e-01  1.9547880210047600e-01  1.9544980340969739e-01  1.9541365299962779e-01  1.9536989435915234e-01  1.9531850425696104e-01  1.9526011407073918e-01  1.9519624518301942e-01  1.9512950321861583e-01  1.9506363818606881e-01  1.9500334467654501e-01  1.9495367656181659e-01  1.9491902644210857e-01  1.9490180629597106e-01  1.9490124084478938e-01  1.9491292010519107e-01  1.9492970987334712e-01  1.9494419989880957e-01  1.9495192895775260e-01  1.9495382793295363e-01  3.6331009318839297e-01  1.9495344275547985e-01  1.4819634829835476e-02  1.4779350030429211e-02  1.4691455178178964e-02  1.4579222218452814e-02  1.4503158294767338e-02  1.4534907626729182e-02  1.4729652706138630e-02  1.5109767833913768e-02  1.5662758519653208e-02  1.6350036541435742e-02  1.7120090581844660e-02  1.7920545511452640e-02  1.8706314645946659e-02  1.9443484414879447e-02  2.0109906639470210e-02  2.0693818300455968e-02  2.1191604434079581e-02  2.1605443523469020e-02  2.1941231091805097e-02  2.2206935179152343e-02  2.2411395087308883e-02  2.2563505767094871e-02  2.2671706714033790e-02  2.2743695154215926e-02  2.2786295064029405e-02  2.2805428423428947e-02  2.2806149221173855e-02  2.2792712531689518e-02  2.2768660107405969e-02  2.2736910636450419e-02  2.2699847522547084e-02  2.2659400237380528e-02  2.2617117362680267e-02  2.2574230745123658e-02  2.2531710954352580e-02  2.2490314655159743e-02  2.2450624701645772e-02  2.2413083824555091e-02  2.2378022766290973e-02  2.2345683658600873e-02  2.2316239350793465e-02  2.2289809317423637e-02  2.2266472682324623e-02  2.2246278812731807e-02  2.2229255877156323e-02  2.2215417674101873e-02  2.2204768997916402e-02  2.2197309746076588e-02  2.2193037930729409e-02  2.2191951714898434e-02  2.2194050551918781e-02  2.2199335479344467e-02  2.2207808574135068e-02  2.2219471550316006e-02  2.2234323443539317e-02  2.2252357289624547e-02  2.2273555663704342e-02  2.2297884914429356e-02  2.2325287860612775e-02  2.2355674688575994e-02  2.2388911706738346e-02  2.2424807560896654e-02  2.2463096432593865e-02  2.2503417660572317e-02  2.2545291140463969e-02  2.2588087776359372e-02  2.2630994169034274e-02  2.2672970687543675e-02  2.2712702060549400e-02  2.2748539715884059e-02  2.2778435336380604e-02  2.2799865587865675e-02  2.2809748850768780e-02  2.2804356229732481e-02  2.2779221425980739e-02  2.2729057549271708e-02  2.2647694111361666e-02  2.2528054727113445e-02  2.2362205942366598e-02  2.2141520305677592e-02  2.1857011816032917e-02  2.1499917316096795e-02  2.1062608614005995e-02  2.0539917834085458e-02  1.9930926518164693e-02  1.9241182343765678e-02  1.8485134368261658e-02  1.7688292406216582e-02  1.6888230986294633e-02  1.6133184030225484e-02  1.5476890711029617e-02  1.4968997478800705e-02  1.4642083820163770e-02  1.4499073942121965e-02  1.4507121984471127e-02  1.4603814220197714e-02  1.4717384794386584e-02  1.4794860268615317e-02  1.4824715808209599e-02  1.9495386488235944e-01  1.9495087906678332e-01  1.4792617696453680e-02  1.4684113598053966e-02  1.4496652909093882e-02  1.4311740700857167e-02  1.4302314269927258e-02  1.4668568526308184e-02  1.5560928302954496e-02  1.7032267564921016e-02  1.9031949140778742e-02  2.1432716221275433e-02  2.4070948126359820e-02  2.6783263993832657e-02  2.9430819409989928e-02  3.1910356898336628e-02  3.4155247684985068e-02  3.6130730391276178e-02  3.7826792833570294e-02  3.9250900521861559e-02  4.0421695016985254e-02  4.1364057201590781e-02  4.2105522501684339e-02  4.2673849611259668e-02  4.3095489889779237e-02  4.3394716703322400e-02  4.3593213290355343e-02  4.3709963094163889e-02  4.3761328115018705e-02  4.3761234915735359e-02  4.3721414116804913e-02  4.3651658348093814e-02  4.3560077134256192e-02  4.3453336369495082e-02  4.3336876101520372e-02  4.3215104192234510e-02  4.3091565778612839e-02  4.2969089775679009e-02  4.2849914382065285e-02  4.2735793804892008e-02  4.2628088467587866e-02  4.2527840859895000e-02  4.2435838996004671e-02  4.2352669253440695e-02  4.2278760131778115e-02  4.2214418248394947e-02  4.2159857723382516e-02  4.2115223885565406e-02  4.2080612082345870e-02  4.2056082230338132e-02  4.2041669595918763e-02  4.2037392193316897e-02  4.2043255034757060e-02  4.2059251403649078e-02  4.2085361191366633e-02  4.2121546229778456e-02  4.2167742471524911e-02  4.2223848748730586e-02  4.2289711712564348e-02  4.2365106462915081e-02  4.2449712211559937e-02  4.2543082194758552e-02  4.2644606871743540e-02  4.2753469268939914e-02  4.2868591134677697e-02  4.2988568351711887e-02  4.3111593841906659e-02  4.3235365988201963e-02  4.3356980418026630e-02  4.3472802906450864e-02  4.3578321185652802e-02  4.3667973741945754e-02  4.3734954393695985e-02  4.3770992783521090e-02  4.3766113304248011e-02  4.3708378847780199e-02  4.3583631927411548e-02  4.3375255023594517e-02  4.3063985766117141e-02  4.2627842227190377e-02  4.2042240673920733e-02  4.1280423836284746e-02  4.0314361850407071e-02  3.9116337210724439e-02  3.7661469043247436e-02  3.5931448131911181e-02  3.3919698518452307e-02  3.1637980143681854e-02  2.9123993438823464e-02  2.6448728600824395e-02  2.3721093590219844e-02  2.1086013573672652e-02  1.8711533059838970e-02  1.6761922458572248e-02  1.5358860488408538e-02  1.4541162378577638e-02  1.4241337643326635e-02  1.4297417573597343e-02  1.4505999110789342e-02  1.4699022884542889e-02  1.4803490136267472e-02  1.9495290535395438e-01  1.9494360051789550e-01  1.4736756606975182e-02  1.4555431307347544e-02  1.4366547196681984e-02  1.4353533149859016e-02  1.4812063490768523e-02  1.6054893911558094e-02  1.8293524786864496e-02  2.1566557114482132e-02  2.5738727711248105e-02  3.0554155644253650e-02  3.5708902882890498e-02  4.0913365722499567e-02  4.5930740795839337e-02  5.0591714300280533e-02  5.4792401981960948e-02  5.8483499193230148e-02  6.1656635981180180e-02  6.4331434325178849e-02  6.6544816450399086e-02  6.8342922883553286e-02  6.9775407233352710e-02  7.0891655581047514e-02  7.1738454669270590e-02  7.2358693995429602e-02  7.2790772947179699e-02  7.3068467223486644e-02  7.3221078736143919e-02  7.3273747457233585e-02  7.3247843994779377e-02  7.3161390469311416e-02  7.3029477303720003e-02  7.2864657080543210e-02  7.2677305609702897e-02  7.2475946026008181e-02  7.2267535333753213e-02  7.2057714871118284e-02  7.1851027295127962e-02  7.1651103237867858e-02  7.1460820883194026e-02  7.1282441675709463e-02  7.1117725128565595e-02  7.0968025448569200e-02  7.0834372394750739e-02  7.0717538460909585e-02  7.0618094216068489e-02  7.0536453353179762e-02  7.0472908721290917e-02  7.0427660406098963e-02  7.0400836687838142e-02  7.0392508522448605e-02  7.0402697977136497e-02  7.0431380880548261e-02  7.0478483782422829e-02  7.0543875125942596e-02  7.0627350358405644e-02  7.0728610548730614e-02  7.0847233854310937e-02  7.0982639008101811e-02  7.1134039770880592e-02  7.1300389053966018e-02  7.1480311172691963e-02  7.1672020412861914e-02  7.1873223827670085e-02  7.2081005847043716e-02  7.2291692030107851e-02  7.2500688997960971e-02  7.2702297355558942e-02  7.2889494374394681e-02  7.3053683293910071e-02  7.3184406583315237e-02  7.3269021612754170e-02  7.3292339151442981e-02  7.3236228523677560e-02  7.3079198803989276e-02  7.2795974191644075e-02  7.2357094983979880e-02  7.1728595434514542e-02  7.0871838695663714e-02  6.9743629934827744e-02  6.8296784817763523e-02  6.6481404112901044e-02  6.4247195133505686e-02  6.1547277557770369e-02  5.8343986846009610e-02  5.4617179820729417e-02  5.0375331709692356e-02  4.5669090009794133e-02  4.0605654657765999e-02  3.5360196722938747e-02  3.0177759910489849e-02  2.5357008103396306e-02  2.1208539573309537e-02  1.7988590669453353e-02  1.5824259176906691e-02  1.4662216276233903e-02  1.4275508205491005e-02  1.4341622383008096e-02  1.4562050441093821e-02  1.4754412136883610e-02  1.9494877445383274e-01  1.9492968272369446e-01  1.4644454375245697e-02  1.4404130593667602e-02  1.4377404706307051e-02  1.4884590821669375e-02  1.6325085477350315e-02  1.9060960941563343e-02  2.3281693948921656e-02  2.8933359066355552e-02  3.5740355735216278e-02  4.3292028273564404e-02  5.1145095765280285e-02  5.8903721624889799e-02  6.6262607035239562e-02  7.3017339973453221e-02  7.9054080272309230e-02  8.4330213511990409e-02  8.8853776339158641e-02  9.2665594812457341e-02  9.5825436897546856e-02  9.8402073869702511e-02  1.0046657808056494e-01  1.0208807163906647e-01  1.0333122636687087e-01  1.0425496160629724e-01  1.0491193041097646e-01  1.0534850375163127e-01  1.0560505329557413e-01  1.0571639919043571e-01  1.0571233568452312e-01  1.0561817928461484e-01  1.0545530568325298e-01  1.0524165592664358e-01  1.0499220166046000e-01  1.0471936517917649e-01  1.0443339369106835e-01  1.0414268945542673e-01  1.0385409860142908e-01  1.0357316212473497e-01  1.0330433269482495e-01  1.0305116091159774e-01  1.0281645445608878e-01  1.0260241331393241e-01  1.0241074396759373e-01  1.0224275508408429e-01  1.0209943696547225e-01  1.0198152668615057e-01  1.0188956054007509e-01  1.0182391515413797e-01  1.0178483833913304e-01  1.0177247050729127e-01  1.0178685724157685e-01  1.0182795334744968e-01  1.0189561850685161e-01  1.0198960444136007e-01  1.0210953319714985e-01  1.0225486600336212e-01  1.0242486188006011e-01  1.0261852489863507e-01  1.0283453878170420e-01  1.0307118721060904e-01  1.0332625792535052e-01  1.0359692839879420e-01  1.0387963056315511e-01  1.0416989173241337e-01  1.0446214856275063e-01  1.0474953068597018e-01  1.0502361035518062e-01  1.0527411449804411e-01  1.0548859568926922e-01  1.0565205908681088e-01  1.0574654352436769e-01  1.0575065699240638e-01  1.0563907016401544e-01  1.0538197725126161e-01  1.0494454238561468e-01  1.0428636345860365e-01  1.0336100632116640e-01  1.0211569376484009e-01  1.0049128001101565e-01  9.8422708333479353e-02  9.5840243102570777e-02  9.2671893072765688e-02  8.8847598374739961e-02  8.4305919454971484e-02  7.9004079936501520e-02  7.2932132987354292e-02  6.6131465887378921e-02  5.8716400284152065e-02  5.0894819298414939e-02  4.2979530457287474e-02  3.5377814494416265e-02  2.8546072764783825e-02  2.2905208397316273e-02  1.8733038515827138e-02  1.6075201540905332e-02  1.4725777530193246e-02  1.4304170043496267e-02  1.4395472726675185e-02  1.4668902045686633e-02  1.9493897641806532e-01  1.9490862104118606e-01  1.4516570490054947e-02  1.4256983258157385e-02  1.4627853053171075e-02  1.6109589726405082e-02  1.9150406120001545e-02  2.4050202641824198e-02  3.0852226191677906e-02  3.9313365864435512e-02  4.8969214629219243e-02  5.9253791510430198e-02  6.9618256040710674e-02  7.9611150621390986e-02  8.8911439373321882e-02  9.7325372758405332e-02  1.0476402067289511e-01  1.1121514664376003e-01  1.1671731152323971e-01  1.2133934377933325e-01  1.2516552221288069e-01  1.2828559634056963e-01  1.3078846166661387e-01  1.3275841143824951e-01  1.3427312008288100e-01  1.3540274753764364e-01  1.3620974383807877e-01  1.3674907337069259e-01  1.3706867598579561e-01  1.3721004820098870e-01  1.3720887133017237e-01  1.3709564179258449e-01  1.3689627720421438e-01  1.3663268350523999e-01  1.3632327579122872e-01  1.3598345019413183e-01  1.3562600692752347e-01  1.3526152638381800e-01  1.3489870111243768e-01  1.3454462701187445e-01  1.3420505726953341e-01  1.3388462255936567e-01  1.3358702091333957e-01  1.3331518044935997e-01  1.3307139789950700e-01  1.3285745557421938e-01  1.3267471915983697e-01  1.3252421837331885e-01  1.3240671228674480e-01  1.3232274076972733e-01  1.3227266325803586e-01  1.3225668576844032e-01  1.3227487681599973e-01  1.3232717261477966e-01  1.3241337169663023e-01  1.3253311883666447e-01  1.3268587786486907e-01  1.3287089273446928e-01  1.3308713594684296e-01  1.3333324310216910e-01  1.3360743215253645e-01  1.3390740558025932e-01  1.3423023346427096e-01  1.3457221508349049e-01  1.3492871646592974e-01  1.3529398095940423e-01  1.3566090965585709e-01  1.3602080837405417e-01  1.3636309762894944e-01  1.3667498213429646e-01  1.3694107644091472e-01  1.3714298380827974e-01  1.3725882623600943e-01  1.3726272514448329e-01  1.3712423482370439e-01  1.3680773504649385e-01  1.3627179624086505e-01  1.3546854175944548e-01  1.3434304937663527e-01  1.3283286189123178e-01  1.3086771960478036e-01  1.2836969311481616e-01  1.2525399319136099e-01  1.2143087728028558e-01  1.1680926914843576e-01  1.1130295675225697e-01  1.0484049427133563e-01  9.7380082051030464e-02  8.8930447707385646e-02  7.9577575602909678e-02  6.9514302380295406e-02  5.9064813885278067e-02  4.8689749403957427e-02  3.8953734892585967e-02  3.0442661472213639e-02  2.3638690000963442e-02  1.8792226597452111e-02  1.5850704638733421e-02  1.4488632631879633e-02  1.4223791385851364e-02  1.4545905185340352e-02  1.9492218041624720e-01  1.9488104937265405e-01  1.4363888707485561e-02  1.4171294054715705e-02  1.5284232587004759e-02  1.8350174835103122e-02  2.3754908097671029e-02  3.1563254004472352e-02  4.1513530581007096e-02  5.3079148115624503e-02  6.5587714000286568e-02  7.8356363385824246e-02  9.0798921892665058e-02  1.0248180960997777e-01  1.1313178489147517e-01  1.2261316782817175e-01  1.3089316304164578e-01  1.3800782673303735e-01  1.4403446635510159e-01  1.4907169129443204e-01  1.5322612734427343e-01  1.5660415317156848e-01  1.5930711075913934e-01  1.6142878427686175e-01  1.6305429672913857e-01  1.6425985891218461e-01  1.6511300937993689e-01  1.6567312113907312e-01  1.6599203897238848e-01  1.6611476650109852e-01  1.6608015594085193e-01  1.6592157392557222e-01  1.6566752898091391e-01  1.6534225349644502e-01  1.6496623726517756e-01  1.6455671225298896e-01  1.6412808978386684e-01  1.6369235216264963e-01  1.6325940137361206e-01  1.6283736771769994e-01  1.6243288142046750e-01  1.6205131027374942e-01  1.6169696628636157e-01  1.6137328422078451e-01  1.6108297470746730e-01  1.6082815438367118e-01  1.6061045542724642e-01  1.6043111633547777e-01  1.6029105581444969e-01  1.6019093121089811e-01  1.6013118269321469e-01  1.6011206412582568e-01  1.6013366130785106e-01  1.6019589797652778e-01  1.6029852970248837e-01  1.6044112556378565e-01  1.6062303716926829e-01  1.6084335439577180e-01  1.6110084689869067e-01  1.6139389017371161e-01  1.6172037473888051e-01  1.6207759668054317e-01  1.6246212758470802e-01  1.6286966161857330e-01  1.6329483731281497e-01  1.6373103138211961e-01  1.6417012173592693e-01  1.6460221676882864e-01  1.6501534786886235e-01  1.6539512218068231e-01  1.6572433269446354e-01  1.6598252303187025e-01  1.6614550475912579e-01  1.6618482579287880e-01  1.6606718991404393e-01  1.6575382964131863e-01  1.6519983870467342e-01  1.6435347722551247e-01  1.6315547423233004e-01  1.6153837189504905e-01  1.5942598864707741e-01  1.5673313221869600e-01  1.5336578024880948e-01  1.4922208164061374e-01  1.4419473562389301e-01  1.3817559408421404e-01  1.3106370038661622e-01  1.2277835234156202e-01  1.1327893830202364e-01  1.0259274915113600e-01  9.0849910331333272e-02  7.8320083367682175e-02  6.5438603810692275e-02  5.2802866546720950e-02  4.1119137373692827e-02  3.1093046137038866e-02  2.3283539119611757e-02  1.7965487237529831e-02  1.5051469888825247e-02  1.4098007645252320e-02  1.4393524679654435e-02  1.9489839019789024e-01  1.9484833167612858e-01  1.4206900596069189e-02  1.4250139497134745e-02  1.6631161336437994e-02  2.2132059422838468e-02  3.0865626545110991e-02  4.2407169225442687e-02  5.6012438654139740e-02  7.0812475040644612e-02  8.5965121160261393e-02  1.0076026371739932e-01  1.1467438461473388e-01  1.2737725484424522e-01  1.3870509607505910e-01  1.4861886044627454e-01  1.5716238885913428e-01  1.6442820997849200e-01  1.7053300085572934e-01  1.7560160219867385e-01  1.7975743715098505e-01  1.8311725432573084e-01  1.8578858658303646e-01  1.8786881868028571e-01  1.8944515655359601e-01  1.9059506967834605e-01  1.9138695813746398e-01  1.9188090615923536e-01  1.9212944885904054e-01  1.9217831541274333e-01  1.9206713183411628e-01  1.9183007673892399e-01  1.9149648840228520e-01  1.9109142370085477e-01  1.9063617044356518e-01  1.9014871477819190e-01  1.8964416571750220e-01  1.8913513870282628e-01  1.8863210028337371e-01  1.8814367614671645e-01  1.8767692468967512e-01  1.8723757852084491e-01  1.8683025621442398e-01  1.8645864665500700e-01  1.8612566824788124e-01  1.8583360508038957e-01  1.8558422214542658e-01  1.8537886135418435e-01  1.8521851997323457e-01  1.8510391287178901e-01  1.8503551974169080e-01  1.8501361816040596e-01  1.8503830315816416e-01  1.8510949367804777e-01  1.8522692606351171e-01  1.8539013440403251e-01  1.8559841741770877e-01  1.8585079117574632e-01  1.8614592679317654e-01  1.8648207193230376e-01  1.8685695475784406e-01  1.8726766873679906e-01  1.8771053646477376e-01  1.8818095055661621e-01  1.8867318946252776e-01  1.8918020596901469e-01  1.8969338609969361e-01  1.9020227609573032e-01  1.9069427515379894e-01  1.9115429173949772e-01  1.9156436128923482e-01  1.9190322323133738e-01  1.9214585533788792e-01  1.9226296340404536e-01  1.9222042435549672e-01  1.9197868110285829e-01  1.9149208817819380e-01  1.9070820928376581e-01  1.8956707242293458e-01  1.8800039805025415e-01  1.8593083464255389e-01  1.8327127113803179e-01  1.7992435809717300e-01  1.7578247568150288e-01  1.7072856075721987e-01  1.6463847674684523e-01  1.5738600276437834e-01  1.4885202333830505e-01  1.3894000299045495e-01  1.2759999655769791e-01  1.1486263565612294e-01  1.0088172927550240e-01  8.5978831284696994e-02  7.0676073218828878e-02  5.5698273227222900e-02  4.1926438918010733e-02  3.0290294293936176e-02  2.1591754725752255e-02  1.6262265355738936e-02  1.4109904027468090e-02  1.4228743735635763e-02  1.9486855434153214e-01  1.9481239041113102e-01  1.4078335728791608e-02  1.4669578191617377e-02  1.9145461813675296e-02  2.8287539656717819e-02  4.1552978242224842e-02  5.7681370375742058e-02  7.5294274944455120e-02  9.3210479280946196e-02  1.1054441436472967e-01  1.2670344115971777e-01  1.4134645249071134e-01  1.5432810579326675e-01  1.6564103109773531e-01  1.7536472241125697e-01  1.8362594526679804e-01  1.9057142261293414e-01  1.9635089558519009e-01  2.0110771713931774e-01  2.0497433416830663e-01  2.080706595