<?xml version="1.0"?>
<VTKFile type="UnstructuredGrid"  version="0.1"  >
<UnstructuredGrid>
<Piece  NumberOfPoints="10201" NumberOfCells="20000">
<Points>
<DataArray  type="Float64"  NumberOfComponents="3"  format="ascii">0 0 0  0.015 0 0  0.03 0 0  0.045 0 0  0.06 0 0  0.075 0 0  0.09 0 0  0.105 0 0  0.12 0 0  0.135 0 0  0.15 0 0  0.165 0 0  0.18 0 0  0.195 0 0  0.21 0 0  0.225 0 0  0.24 0 0  0.255 0 0  0.27 0 0  0.285 0 0  0.3 0 0  0.315 0 0  0.33 0 0  0.345 0 0  0.36 0 0  0.375 0 0  0.39 0 0  0.405 0 0  0.42 0 0  0.435 0 0  0.45 0 0  0.465 0 0  0.48 0 0  0.495 0 0  0.51 0 0  0.525 0 0  0.54 0 0  0.555 0 0  0.57 0 0  0.585 0 0  0.6 0 0  0.615 0 0  0.63 0 0  0.645 0 0  0.66 0 0  0.675 0 0  0.6899999999999999 0 0  0.705 0 0  0.72 0 0  0.735 0 0  0.75 0 0  0.765 0 0  0.78 0 0  0.795 0 0  0.8100000000000001 0 0  0.825 0 0  0.84 0 0  0.855 0 0  0.87 0 0  0.885 0 0  0.9 0 0  0.915 0 0  0.93 0 0  0.945 0 0  0.96 0 0  0.975 0 0  0.99 0 0  1.005 0 0  1.02 0 0  1.035 0 0  1.05 0 0  1.065 0 0  1.08 0 0  1.095 0 0  1.11 0 0  1.125 0 0  1.14 0 0  1.155 0 0  1.17 0 0  1.185 0 0  1.2 0 0  1.215 0 0  1.23 0 0  1.245 0 0  1.26 0 0  1.275 0 0  1.29 0 0  1.305 0 0  1.32 0 0  1.335 0 0  1.35 0 0  1.365 0 0  1.38 0 0  1.395 0 0  1.41 0 0  1.425 0 0  1.44 0 0  1.455 0 0  1.47 0 0  1.485 0 0  1.5 0 0  0 0.01 0  0.015 0.01 0  0.03 0.01 0  0.045 0.01 0  0.06 0.01 0  0.075 0.01 0  0.09 0.01 0  0.105 0.01 0  0.12 0.01 0  0.135 0.01 0  0.15 0.01 0  0.165 0.01 0  0.18 0.01 0  0.195 0.01 0  0.21 0.01 0  0.225 0.01 0  0.24 0.01 0  0.255 0.01 0  0.27 0.01 0  0.285 0.01 0  0.3 0.01 0  0.315 0.01 0  0.33 0.01 0  0.345 0.01 0  0.36 0.01 0  0.375 0.01 0  0.39 0.01 0  0.405 0.01 0  0.42 0.01 0  0.435 0.01 0  0.45 0.01 0  0.465 0.01 0  0.48 0.01 0  0.495 0.01 0  0.51 0.01 0  0.525 0.01 0  0.54 0.01 0  0.555 0.01 0  0.57 0.01 0  0.585 0.01 0  0.6 0.01 0  0.615 0.01 0  0.63 0.01 0  0.645 0.01 0  0.66 0.01 0  0.675 0.01 0  0.6899999999999999 0.01 0  0.705 0.01 0  0.72 0.01 0  0.735 0.01 0  0.75 0.01 0  0.765 0.01 0  0.78 0.01 0  0.795 0.01 0  0.8100000000000001 0.01 0  0.825 0.01 0  0.84 0.01 0  0.855 0.01 0  0.87 0.01 0  0.885 0.01 0  0.9 0.01 0  0.915 0.01 0  0.93 0.01 0  0.945 0.01 0  0.96 0.01 0  0.975 0.01 0  0.99 0.01 0  1.005 0.01 0  1.02 0.01 0  1.035 0.01 0  1.05 0.01 0  1.065 0.01 0  1.08 0.01 0  1.095 0.01 0  1.11 0.01 0  1.125 0.01 0  1.14 0.01 0  1.155 0.01 0  1.17 0.01 0  1.185 0.01 0  1.2 0.01 0  1.215 0.01 0  1.23 0.01 0  1.245 0.01 0  1.26 0.01 0  1.275 0.01 0  1.29 0.01 0  1.305 0.01 0  1.32 0.01 0  1.335 0.01 0  1.35 0.01 0  1.365 0.01 0  1.38 0.01 0  1.395 0.01 0  1.41 0.01 0  1.425 0.01 0  1.44 0.01 0  1.455 0.01 0  1.47 0.01 0  1.485 0.01 0  1.5 0.01 0  0 0.02 0  0.015 0.02 0  0.03 0.02 0  0.045 0.02 0  0.06 0.02 0  0.075 0.02 0  0.09 0.02 0  0.105 0.02 0  0.12 0.02 0  0.135 0.02 0  0.15 0.02 0  0.165 0.02 0  0.18 0.02 0  0.195 0.02 0  0.21 0.02 0  0.225 0.02 0  0.24 0.02 0  0.255 0.02 0  0.27 0.02 0  0.285 0.02 0  0.3 0.02 0  0.315 0.02 0  0.33 0.02 0  0.345 0.02 0  0.36 0.02 0  0.375 0.02 0  0.39 0.02 0  0.405 0.02 0  0.42 0.02 0  0.435 0.02 0  0.45 0.02 0  0.465 0.02 0  0.48 0.02 0  0.495 0.02 0  0.51 0.02 0  0.525 0.02 0  0.54 0.02 0  0.555 0.02 0  0.57 0.02 0  0.585 0.02 0  0.6 0.02 0  0.615 0.02 0  0.63 0.02 0  0.645 0.02 0  0.66 0.02 0  0.675 0.02 0  0.6899999999999999 0.02 0  0.705 0.02 0  0.72 0.02 0  0.735 0.02 0  0.75 0.02 0  0.765 0.02 0  0.78 0.02 0  0.795 0.02 0  0.8100000000000001 0.02 0  0.825 0.02 0  0.84 0.02 0  0.855 0.02 0  0.87 0.02 0  0.885 0.02 0  0.9 0.02 0  0.915 0.02 0  0.93 0.02 0  0.945 0.02 0  0.96 0.02 0  0.975 0.02 0  0.99 0.02 0  1.005 0.02 0  1.02 0.02 0  1.035 0.02 0  1.05 0.02 0  1.065 0.02 0  1.08 0.02 0  1.095 0.02 0  1.11 0.02 0  1.125 0.02 0  1.14 0.02 0  1.155 0.02 0  1.17 0.02 0  1.185 0.02 0  1.2 0.02 0  1.215 0.02 0  1.23 0.02 0  1.245 0.02 0  1.26 0.02 0  1.275 0.02 0  1.29 0.02 0  1.305 0.02 0  1.32 0.02 0  1.335 0.02 0  1.35 0.02 0  1.365 0.02 0  1.38 0.02 0  1.395 0.02 0  1.41 0.02 0  1.425 0.02 0  1.44 0.02 0  1.455 0.02 0  1.47 0.02 0  1.485 0.02 0  1.5 0.02 0  0 0.03 0  0.015 0.03 0  0.03 0.03 0  0.045 0.03 0  0.06 0.03 0  0.075 0.03 0  0.09 0.03 0  0.105 0.03 0  0.12 0.03 0  0.135 0.03 0  0.15 0.03 0  0.165 0.03 0  0.18 0.03 0  0.195 0.03 0  0.21 0.03 0  0.225 0.03 0  0.24 0.03 0  0.255 0.03 0  0.27 0.03 0  0.285 0.03 0  0.3 0.03 0  0.315 0.03 0  0.33 0.03 0  0.345 0.03 0  0.36 0.03 0  0.375 0.03 0  0.39 0.03 0  0.405 0.03 0  0.42 0.03 0  0.435 0.03 0  0.45 0.03 0  0.465 0.03 0  0.48 0.03 0  0.495 0.03 0  0.51 0.03 0  0.525 0.03 0  0.54 0.03 0  0.555 0.03 0  0.57 0.03 0  0.585 0.03 0  0.6 0.03 0  0.615 0.03 0  0.63 0.03 0  0.645 0.03 0  0.66 0.03 0  0.675 0.03 0  0.6899999999999999 0.03 0  0.705 0.03 0  0.72 0.03 0  0.735 0.03 0  0.75 0.03 0  0.765 0.03 0  0.78 0.03 0  0.795 0.03 0  0.8100000000000001 0.03 0  0.825 0.03 0  0.84 0.03 0  0.855 0.03 0  0.87 0.03 0  0.885 0.03 0  0.9 0.03 0  0.915 0.03 0  0.93 0.03 0  0.945 0.03 0  0.96 0.03 0  0.975 0.03 0  0.99 0.03 0  1.005 0.03 0  1.02 0.03 0  1.035 0.03 0  1.05 0.03 0  1.065 0.03 0  1.08 0.03 0  1.095 0.03 0  1.11 0.03 0  1.125 0.03 0  1.14 0.03 0  1.155 0.03 0  1.17 0.03 0  1.185 0.03 0  1.2 0.03 0  1.215 0.03 0  1.23 0.03 0  1.245 0.03 0  1.26 0.03 0  1.275 0.03 0  1.29 0.03 0  1.305 0.03 0  1.32 0.03 0  1.335 0.03 0  1.35 0.03 0  1.365 0.03 0  1.38 0.03 0  1.395 0.03 0  1.41 0.03 0  1.425 0.03 0  1.44 0.03 0  1.455 0.03 0  1.47 0.03 0  1.485 0.03 0  1.5 0.03 0  0 0.04 0  0.015 0.04 0  0.03 0.04 0  0.045 0.04 0  0.06 0.04 0  0.075 0.04 0  0.09 0.04 0  0.105 0.04 0  0.12 0.04 0  0.135 0.04 0  0.15 0.04 0  0.165 0.04 0  0.18 0.04 0  0.195 0.04 0  0.21 0.04 0  0.225 0.04 0  0.24 0.04 0  0.255 0.04 0  0.27 0.04 0  0.285 0.04 0  0.3 0.04 0  0.315 0.04 0  0.33 0.04 0  0.345 0.04 0  0.36 0.04 0  0.375 0.04 0  0.39 0.04 0  0.405 0.04 0  0.42 0.04 0  0.435 0.04 0  0.45 0.04 0  0.465 0.04 0  0.48 0.04 0  0.495 0.04 0  0.51 0.04 0  0.525 0.04 0  0.54 0.04 0  0.555 0.04 0  0.57 0.04 0  0.585 0.04 0  0.6 0.04 0  0.615 0.04 0  0.63 0.04 0  0.645 0.04 0  0.66 0.04 0  0.675 0.04 0  0.6899999999999999 0.04 0  0.705 0.04 0  0.72 0.04 0  0.735 0.04 0  0.75 0.04 0  0.765 0.04 0  0.78 0.04 0  0.795 0.04 0  0.8100000000000001 0.04 0  0.825 0.04 0  0.84 0.04 0  0.855 0.04 0  0.87 0.04 0  0.885 0.04 0  0.9 0.04 0  0.915 0.04 0  0.93 0.04 0  0.945 0.04 0  0.96 0.04 0  0.975 0.04 0  0.99 0.04 0  1.005 0.04 0  1.02 0.04 0  1.035 0.04 0  1.05 0.04 0  1.065 0.04 0  1.08 0.04 0  1.095 0.04 0  1.11 0.04 0  1.125 0.04 0  1.14 0.04 0  1.155 0.04 0  1.17 0.04 0  1.185 0.04 0  1.2 0.04 0  1.215 0.04 0  1.23 0.04 0  1.245 0.04 0  1.26 0.04 0  1.275 0.04 0  1.29 0.04 0  1.305 0.04 0  1.32 0.04 0  1.335 0.04 0  1.35 0.04 0  1.365 0.04 0  1.38 0.04 0  1.395 0.04 0  1.41 0.04 0  1.425 0.04 0  1.44 0.04 0  1.455 0.04 0  1.47 0.04 0  1.485 0.04 0  1.5 0.04 0  0 0.05 0  0.015 0.05 0  0.03 0.05 0  0.045 0.05 0  0.06 0.05 0  0.075 0.05 0  0.09 0.05 0  0.105 0.05 0  0.12 0.05 0  0.135 0.05 0  0.15 0.05 0  0.165 0.05 0  0.18 0.05 0  0.195 0.05 0  0.21 0.05 0  0.225 0.05 0  0.24 0.05 0  0.255 0.05 0  0.27 0.05 0  0.285 0.05 0  0.3 0.05 0  0.315 0.05 0  0.33 0.05 0  0.345 0.05 0  0.36 0.05 0  0.375 0.05 0  0.39 0.05 0  0.405 0.05 0  0.42 0.05 0  0.435 0.05 0  0.45 0.05 0  0.465 0.05 0  0.48 0.05 0  0.495 0.05 0  0.51 0.05 0  0.525 0.05 0  0.54 0.05 0  0.555 0.05 0  0.57 0.05 0  0.585 0.05 0  0.6 0.05 0  0.615 0.05 0  0.63 0.05 0  0.645 0.05 0  0.66 0.05 0  0.675 0.05 0  0.6899999999999999 0.05 0  0.705 0.05 0  0.72 0.05 0  0.735 0.05 0  0.75 0.05 0  0.765 0.05 0  0.78 0.05 0  0.795 0.05 0  0.8100000000000001 0.05 0  0.825 0.05 0  0.84 0.05 0  0.855 0.05 0  0.87 0.05 0  0.885 0.05 0  0.9 0.05 0  0.915 0.05 0  0.93 0.05 0  0.945 0.05 0  0.96 0.05 0  0.975 0.05 0  0.99 0.05 0  1.005 0.05 0  1.02 0.05 0  1.035 0.05 0  1.05 0.05 0  1.065 0.05 0  1.08 0.05 0  1.095 0.05 0  1.11 0.05 0  1.125 0.05 0  1.14 0.05 0  1.155 0.05 0  1.17 0.05 0  1.185 0.05 0  1.2 0.05 0  1.215 0.05 0  1.23 0.05 0  1.245 0.05 0  1.26 0.05 0  1.275 0.05 0  1.29 0.05 0  1.305 0.05 0  1.32 0.05 0  1.335 0.05 0  1.35 0.05 0  1.365 0.05 0  1.38 0.05 0  1.395 0.05 0  1.41 0.05 0  1.425 0.05 0  1.44 0.05 0  1.455 0.05 0  1.47 0.05 0  1.485 0.05 0  1.5 0.05 0  0 0.06 0  0.015 0.06 0  0.03 0.06 0  0.045 0.06 0  0.06 0.06 0  0.075 0.06 0  0.09 0.06 0  0.105 0.06 0  0.12 0.06 0  0.135 0.06 0  0.15 0.06 0  0.165 0.06 0  0.18 0.06 0  0.195 0.06 0  0.21 0.06 0  0.225 0.06 0  0.24 0.06 0  0.255 0.06 0  0.27 0.06 0  0.285 0.06 0  0.3 0.06 0  0.315 0.06 0  0.33 0.06 0  0.345 0.06 0  0.36 0.06 0  0.375 0.06 0  0.39 0.06 0  0.405 0.06 0  0.42 0.06 0  0.435 0.06 0  0.45 0.06 0  0.465 0.06 0  0.48 0.06 0  0.495 0.06 0  0.51 0.06 0  0.525 0.06 0  0.54 0.06 0  0.555 0.06 0  0.57 0.06 0  0.585 0.06 0  0.6 0.06 0  0.615 0.06 0  0.63 0.06 0  0.645 0.06 0  0.66 0.06 0  0.675 0.06 0  0.6899999999999999 0.06 0  0.705 0.06 0  0.72 0.06 0  0.735 0.06 0  0.75 0.06 0  0.765 0.06 0  0.78 0.06 0  0.795 0.06 0  0.8100000000000001 0.06 0  0.825 0.06 0  0.84 0.06 0  0.855 0.06 0  0.87 0.06 0  0.885 0.06 0  0.9 0.06 0  0.915 0.06 0  0.93 0.06 0  0.945 0.06 0  0.96 0.06 0  0.975 0.06 0  0.99 0.06 0  1.005 0.06 0  1.02 0.06 0  1.035 0.06 0  1.05 0.06 0  1.065 0.06 0  1.08 0.06 0  1.095 0.06 0  1.11 0.06 0  1.125 0.06 0  1.14 0.06 0  1.155 0.06 0  1.17 0.06 0  1.185 0.06 0  1.2 0.06 0  1.215 0.06 0  1.23 0.06 0  1.245 0.06 0  1.26 0.06 0  1.275 0.06 0  1.29 0.06 0  1.305 0.06 0  1.32 0.06 0  1.335 0.06 0  1.35 0.06 0  1.365 0.06 0  1.38 0.06 0  1.395 0.06 0  1.41 0.06 0  1.425 0.06 0  1.44 0.06 0  1.455 0.06 0  1.47 0.06 0  1.485 0.06 0  1.5 0.06 0  0 0.07000000000000001 0  0.015 0.07000000000000001 0  0.03 0.07000000000000001 0  0.045 0.07000000000000001 0  0.06 0.07000000000000001 0  0.075 0.07000000000000001 0  0.09 0.07000000000000001 0  0.105 0.07000000000000001 0  0.12 0.07000000000000001 0  0.135 0.07000000000000001 0  0.15 0.07000000000000001 0  0.165 0.07000000000000001 0  0.18 0.07000000000000001 0  0.195 0.07000000000000001 0  0.21
[...]
<PointData  Scalars="ControlVisualisation"> 
<DataArray  type="Float64"  Name="ControlVisualisation"  format="ascii">3.3325830347119868e-02  2.2310418541936612e-02  2.2308576375330506e-02  2.2305744725347118e-02  2.2302960254715964e-02  2.2301728790756342e-02  2.2303693273496378e-02  2.2310145578124434e-02  2.2321655721716769e-02  2.2337967809870199e-02  2.2358150973826721e-02  2.2380886949199826e-02  2.2404770062920670e-02  2.2428538848452827e-02  2.2451207549802468e-02  2.2472104258478308e-02  2.2490844502867022e-02  2.2507273350662112e-02  2.2521401078459961e-02  2.2533346126683625e-02  2.2543290291212041e-02  2.2551446232881509e-02  2.2558035367476297e-02  2.2563273703536738e-02  2.2567363390142897e-02  2.2570488178428424e-02  2.2572811475878606e-02  2.2574476074556926e-02  2.2575604934595726e-02  2.2576302607058271e-02  2.2576657014079685e-02  2.2576741392119661e-02  2.2576616262948934e-02  2.2576331340010622e-02  2.2575927308928476e-02  2.2575437441824713e-02  2.2574889023164318e-02  2.2574304575833915e-02  2.2573702886424178e-02  2.2573099835881592e-02  2.2572509047265592e-02  2.2571942368608919e-02  2.2571410210777486e-02  2.2570921765324211e-02  2.2570485124615014e-02  2.2570107328842973e-02  2.2569794362721857e-02  2.2569551120711271e-02  2.2569381358165094e-02  2.2569287642870622e-02  2.2569271315856759e-02  2.2569332470840260e-02  2.2569469954562021e-02  2.2569681389526967e-02  2.2569963218395710e-02  2.2570310762180010e-02  2.2570718285105509e-02  2.2571179053516792e-02  2.2571685372788246e-02  2.2572228582970651e-02  2.2572798990321809e-02  2.2573385710009348e-02  2.2573976392144521e-02  2.2574556804246939e-02  2.2575110242993496e-02  2.2575616751261296e-02  2.2576052120292511e-02  2.2576386663920138e-02  2.2576583760498769e-02  2.2576598169753243e-02  2.2576374147859776e-02  2.2575843405157239e-02  2.2574922976279346e-02  2.2573513106322884e-02  2.2571495298796360e-02  2.2568730724069480e-02  2.2565059260598323e-02  2.2560299548856112e-02  2.2554250603317675e-02  2.2546695775663633e-02  2.2537410206980846e-02  2.2526173326117612e-02  2.2512788368369889e-02  2.2497111145838661e-02  2.2479090141642677e-02  2.2458818802767747e-02  2.2436597483296870e-02  2.2412995345978893e-02  2.2388891727265589e-02  2.2365466214612537e-02  2.2344105125225291e-02  2.2326206212657126e-02  2.2312894721022110e-02  2.2304710661103774e-02  2.2301380625678352e-02  2.2301813844100155e-02  2.2304394446077576e-02  2.2307483942308200e-02  2.2309837191215841e-02  2.2310917392980856e-02  6.2212498361556026e-02  2.2310637127602895e-02  1.1717215050887894e-02  1.1712508593758018e-02  1.1705481843326825e-02  1.1699910220951390e-02  1.1701702797490363e-02  1.1717443172460013e-02  1.1752481451205726e-02  1.1809355505590105e-02  1.1887182331334621e-02  1.1982123314886782e-02  1.2088528655726721e-02  1.2200221672928625e-02  1.2311524505765375e-02  1.2417867684831907e-02  1.2516012402626689e-02  1.2603999665255303e-02  1.2680949902627367e-02  1.2746808576543315e-02  1.2802096725545518e-02  1.2847695682723734e-02  1.2884676334827937e-02  1.2914172954363597e-02  1.2937296495114405e-02  1.2955080093525617e-02  1.2968449179751373e-02  1.2978209307779952e-02  1.2985046005961873e-02  1.2989532221132340e-02  1.2992140072947508e-02  1.2993254568554685e-02  1.2993187663732626e-02  1.2992191616800226e-02  1.2990471011630009e-02  1.2988193134278250e-02  1.2985496616373004e-02  1.2982498399241671e-02  1.2979299162052501e-02  1.2975987402560353e-02  1.2972642372653480e-02  1.2969336068537531e-02  1.2966134463048510e-02  1.2963098147381880e-02  1.2960282534838080e-02  1.2957737753593188e-02  1.2955508338804237e-02  1.2953632817042100e-02  1.2952143255620614e-02  1.2951064835370830e-02  1.2950415491415070e-02  1.2950205654973587e-02  1.2950438116175918e-02  1.2951108025397742e-02  1.2952203031714047e-02  1.2953703559994586e-02  1.2955583213306816e-02  1.2957809273363943e-02  1.2960343267250318e-02  1.2963141545621695e-02  1.2966155803917752e-02  1.2969333453819920e-02  1.2972617731878612e-02  1.2975947406075267e-02  1.2979255916277400e-02  1.2982469766200461e-02  1.2985505961118745e-02  1.2988268281177794e-02  1.2990642184420621e-02  1.2992488154645293e-02  1.2993633362118834e-02  1.2993861589045263e-02  1.2992901498095070e-02  1.2990413497640997e-02  1.2985975692115206e-02  1.2979069729408469e-02  1.2969067768957666e-02  1.2955222369682159e-02  1.2936661869557563e-02  1.2912394820108093e-02  1.2881328246675585e-02  1.2842305756067336e-02  1.2794172498638569e-02  1.2735874236696639e-02  1.2666596755164392e-02  1.2585949089200063e-02  1.2494188556199898e-02  1.2392474964036625e-02  1.2283121791035575e-02  1.2169780927781731e-02  1.2057457220969762e-02  1.1952211562495372e-02  1.1860415398503708e-02  1.1787544579954977e-02  1.1736783227693337e-02  1.1707981451573733e-02  1.1697513950276945e-02  1.1699268807615378e-02  1.1706495944499032e-02  1.1713657822208848e-02  1.1717910068071605e-02  2.2310952397816913e-02  2.2309450123399528e-02  1.1714280200553061e-02  1.1706219941055101e-02  1.1696949319132944e-02  1.1695326761440663e-02  1.1716008330078315e-02  1.1775354726992156e-02  1.1886693910247660e-02  1.2056213994438725e-02  1.2281288709797967e-02  1.2551739085397803e-02  1.2852855017895012e-02  1.3168501451781826e-02  1.3483394211895108e-02  1.3784497548164644e-02  1.4061769218432191e-02  1.4308411066399671e-02  1.4520733114151523e-02  1.4697748505267767e-02  1.4840620478186789e-02  1.4952064695767372e-02  1.5035781926437959e-02  1.5095966602948294e-02  1.5136911705438147e-02  1.5162712753296913e-02  1.5177063826074935e-02  1.5183134376641995e-02  1.5183514478459352e-02  1.5180215846109700e-02  1.5174715569730525e-02  1.5168029082115966e-02  1.5160799028975927e-02  1.5153387943745288e-02  1.5145965015004960e-02  1.5138580362053710e-02  1.5131223523173077e-02  1.5123865662458411e-02  1.5116486994393611e-02  1.5109092047236691e-02  1.5101715734617585e-02  1.5094423041997554e-02  1.5087304692281821e-02  1.5080470609460852e-02  1.5074042480072380e-02  1.5068146287018353e-02  1.5062905352466934e-02  1.5058434193329005e-02  1.5054833337434325e-02  1.5052185152214789e-02  1.5050550684143283e-02  1.5049967487316870e-02  1.5050448407981509e-02  1.5051981310965232e-02  1.5054529733694512e-02  1.5058034475037174e-02  1.5062416136820602e-02  1.5067578626034219e-02  1.5073413621501004e-02  1.5079805963865722e-02  1.5086639861978101e-02  1.5093805693907232e-02  1.5101207012924712e-02  1.5108767130720327e-02  1.5116434336891835e-02  1.5124184437270215e-02  1.5132018862699898e-02  1.5139956196566967e-02  1.5148014702645450e-02  1.5156183421600397e-02  1.5164379836340270e-02  1.5172393131439780e-02  1.5179813704394187e-02  1.5185951772282769e-02  1.5189750401356434e-02  1.5189700760476446e-02  1.5183769610594500e-02  1.5169350899445429e-02  1.5143255104041015e-02  1.5101751754336597e-02  1.5040682298827294e-02  1.4955661185507334e-02  1.4842380784201133e-02  1.4697028183199673e-02  1.4516807499783280e-02  1.4300541352604303e-02  1.4049302633725159e-02  1.3767002353158812e-02  1.3460824405336035e-02  1.3141357953306284e-02  1.2822275800569587e-02  1.2519472418150523e-02  1.2249583317103147e-02  1.2027614459764061e-02  1.1863533167202140e-02  1.1758951423921200e-02  1.1706179094861149e-02  1.1690632389113789e-02  1.1695432121655209e-02  1.1706157014091603e-02  1.1714974181362527e-02  2.2310282113899627e-02  2.2307118015535574e-02  1.1709249084439596e-02  1.1699825126742593e-02  1.1695516950664847e-02  1.1709794443891591e-02  1.1765867482816205e-02  1.1889127822857087e-02  1.2099038881587027e-02  1.2402533401115861e-02  1.2792480719585404e-02  1.3250891937698975e-02  1.3753516949260601e-02  1.4273821245404017e-02  1.4786308246729312e-02  1.5269220717314298e-02  1.5706263664720013e-02  1.6087197491576971e-02  1.6407514819400608e-02  1.6667531272603009e-02  1.6871176437104601e-02  1.7024716603957345e-02  1.7135592649870912e-02  1.7211491294978315e-02  1.7259693252157798e-02  1.7286680690691045e-02  1.7297952280964982e-02  1.7297985103916211e-02  1.7290289529798119e-02  1.7277516240813244e-02  1.7261587500631871e-02  1.7243834774414119e-02  1.7225131525907132e-02  1.7206014208644017e-02  1.7186787200749287e-02  1.7167609425183063e-02  1.7148562053827119e-02  1.7129698097935856e-02  1.7111075731016182e-02  1.7092777910087766e-02  1.7074921155288431e-02  1.7057656311798550e-02  1.7041163834765533e-02  1.7025645742391939e-02  1.7011315889868504e-02  1.6998389792603472e-02  1.6987074844620888e-02  1.6977561459671671e-02  1.6970015435088769e-02  1.6964571691103807e-02  1.6961329428691052e-02  1.6960348692651794e-02  1.6961648316733014e-02  1.6965205218864819e-02  1.6970955024335790e-02  1.6978794027918992e-02  1.6988582495532333e-02  1.7000149318584030e-02  1.7013298001866909e-02  1.7027813917877312e-02  1.7043472653077624e-02  1.7060049137939823e-02  1.7077327034699177e-02  1.7095107604585491e-02  1.7113216954035979e-02  1.7131510195977230e-02  1.7149870736349507e-02  1.7168202534771495e-02  1.7186413020636490e-02  1.7204384271949584e-02  1.7221930201189450e-02  1.7238737836487092e-02  1.7254291284871125e-02  1.7267777553754551e-02  1.7277974192304889e-02  1.7283119884961298e-02  1.7280771387849631e-02  1.7267654674330134e-02  1.7239526373023839e-02  1.7191074773351779e-02  1.7115907375342736e-02  1.7006690294534280e-02  1.6855514587790246e-02  1.6654552653131954e-02  1.6397023800658252e-02  1.6078416558075206e-02  1.5697842892500695e-02  1.5259355345084911e-02  1.4773026239555915e-02  1.4255496123138905e-02  1.3729529004247109e-02  1.3222099324424795e-02  1.2761079531061486e-02  1.2371424901315613e-02  1.2071336674021977e-02  1.1867557473871344e-02  1.1751600075772323e-02  1.1701969585358216e-02  1.1692131471299558e-02  1.1698967754860710e-02  1.1710213895260852e-02  2.2308642016482277e-02  2.2303571469977558e-02  1.1701492254357402e-02  1.1691449788767315e-02  1.1698278449046889e-02  1.1741082275393533e-02  1.1853310867562944e-02  1.2069246361865866e-02  1.2411196931010286e-02  1.2882317690091983e-02  1.3467616355689899e-02  1.4138493238756506e-02  1.4858049864338505e-02  1.5587254930421079e-02  1.6290891084971837e-02  1.6941576995960345e-02  1.7521286403327254e-02  1.8020926664347982e-02  1.8438844709405419e-02  1.8778896216557914e-02  1.9048459561371092e-02  1.9256660826428511e-02  1.9412996040724072e-02  1.9526422362799223e-02  1.9604875271558908e-02  1.9655102049345369e-02  1.9682690666605312e-02  1.9692196496228730e-02  1.9687302745733895e-02  1.9670979480522051e-02  1.9645625704121997e-02  1.9613189926776152e-02  1.9575269738522083e-02  1.9533192656750794e-02  1.9488080766187223e-02  1.9440901446777098e-02  1.9392506186999784e-02  1.9343659323183958e-02  1.9295058363726119e-02  1.9247347508597114e-02  1.9201125831377144e-02  1.9156951457228850e-02  1.9115342871003145e-02  1.9076778320120315e-02  1.9041694052754233e-02  1.9010481964278701e-02  1.8983487052561060e-02  1.8961004966771330e-02  1.8943279805754481e-02  1.8930502275113777e-02  1.8922808249271620e-02  1.8920277744837101e-02  1.8922934322794571e-02  1.8930744919734958e-02  1.8943620096143018e-02  1.8961414736443253e-02  1.8983929192717425e-02  1.9010910879042577e-02  1.9042056304868070e-02  1.9077013490632178e-02  1.9115384643513887e-02  1.9156728903894190e-02  1.9200564831204223e-02  1.9246372177657210e-02  1.9293592328673972e-02  1.9341626575532352e-02  1.9389831278222341e-02  1.9437508752243888e-02  1.9483892626672810e-02  1.9528126390725379e-02  1.9569233825850994e-02  1.9606080058528260e-02  1.9637321983955701e-02  1.9661346621819467e-02  1.9676195586306691e-02  1.9679473231453658e-02  1.9668235554461351e-02  1.9638857612332701e-02  1.9586881134030988e-02  1.9506854285017652e-02  1.9392195724902049e-02  1.9235146422356110e-02  1.9026908884186414e-02  1.8758096508099082e-02  1.8419598807036142e-02  1.8003896672192939e-02  1.7506759819470544e-02  1.6929173147431340e-02  1.6279279509155427e-02  1.5574063055660749e-02  1.4840346202242276e-02  1.4114198651082833e-02  1.3437194204128557e-02  1.2848874418749854e-02  1.2378661766491234e-02  1.2041303536899068e-02  1.1832995565132377e-02  1.1729050425154682e-02  1.1692635109007782e-02  1.1689788135591855e-02  1.1702870321855002e-02  2.2305843774577297e-02  2.2298862292544394e-02  1.1690902648723365e-02  1.1681408564083595e-02  1.1709166250320483e-02  1.1803106535845721e-02  1.2010835820227503e-02  1.2374650321236681e-02  1.2915494029441532e-02  1.3628589752900024e-02  1.4484634262637793e-02  1.5435400922563949e-02  1.6424626426736453e-02  1.7398673797172842e-02  1.8313308758658237e-02  1.9136929052240136e-02  1.9851107403295397e-02  2.0449140308213841e-02  2.0933484565554574e-02  2.1312873477827770e-02  2.1599606961421578e-02  2.1807312451995475e-02  2.1949343721748393e-02  2.2037832464084792e-02  2.2083273207294862e-02  2.2094464017657592e-02  2.2078640070719295e-02  2.2041685656571840e-02  2.1988359322633780e-02  2.1922502022843640e-02  2.1847218149855241e-02  2.1765028512632595e-02  2.1677997492418142e-02  2.1587837154208606e-02  2.1495990853899659e-02  2.1403698715619111e-02  2.1312047250052799e-02  2.1222005545199492e-02  2.1134450404144293e-02  2.1050182826946602e-02  2.0969938011495382e-02  2.0894390789253182e-02  2.0824158050407937e-02  2.0759799368532408e-02  2.0701816687155754e-02  2.0650653645509644e-02  2.0606694893224881e-02  2.0570265561821656e-02  2.0541630957587161e-02  2.0520996459803403e-02  2.0508507588260866e-02  2.0504250164288133e-02  2.0508250537164346e-02  2.0520475850851001e-02  2.0540834329143918e-02  2.0569175635536938e-02  2.0605291333836352e-02  2.0648915509541899e-02  2.0699725611502337e-02  2.0757343528092345e-02  2.0821336853355583e-02  2.0891220214748311e-02  2.0966456353199495e-02  2.1046456475868610e-02  2.1130579135271131e-02  2.1218126571950026e-02  2.1308337182433551e-02  2.1400372428235559e-02  2.1493296232650463e-02  2.1586044811124722e-02  2.1677384815881478e-02  2.1765857824543412e-02  2.1849709432601915e-02  2.1926801393773752e-02  2.1994505273990984e-02  2.2049575768184396e-02  2.2088001435932418e-02  2.2104830846129839e-02  2.2093975264453961e-02  2.2047998665223771e-02  2.1957927282888281e-02  2.1813148246799523e-02  2.1601516570006661e-02  2.1309831647418714e-02  2.0924839812723958e-02  2.0434840578955914e-02  1.9831859255274909e-02  1.9114255131664721e-02  1.8289423081307429e-02  1.7375749263481999e-02  1.6402988563978253e-02  1.5411897158253657e-02  1.4454526438145328e-02  1.3591036985516929e-02  1.2875372875129368e-02  1.2337677426047855e-02  1.1981264533086979e-02  1.1784027735236294e-02  1.1699899381110913e-02  1.1678727553277361e-02  1.1692859871814534e-02  2.2301911199837474e-02  2.2293365447908248e-02  1.1678071709867576e-02  1.1672031881366861e-02  1.1739131765989282e-02  1.1928309774013504e-02  1.2307187444364825e-02  1.2925816224331390e-02  1.3801252904730416e-02  1.4908104352900377e-02  1.6181890165942840e-02  1.7542737341214473e-02  1.8912883133440746e-02  2.0220320360313005e-02  2.1403815880268209e-02  2.2420914536301351e-02  2.3251515126026513e-02  2.3895204345861440e-02  2.4365488713360653e-02  2.4683955523879260e-02  2.4875568508755178e-02  2.4965274120406892e-02  2.4975847756993710e-02  2.4926813262044538e-02  2.4834164466650141e-02  2.4710580737248040e-02  2.4565876850749756e-02  2.4407514594559671e-02  2.4241084387642546e-02  2.4070720899432164e-02  2.3899446992155841e-02  2.3729452889963750e-02  2.3562320344750805e-02  2.3399200504727852e-02  2.3240952339924084e-02  2.3088247204610914e-02  2.2941644441464688e-02  2.2801642822771025e-02  2.2668712515479507e-02  2.2543312112350854e-02  2.2425894893943584e-02  2.2316907937444244e-02  2.2216787000770503e-02  2.2125949411917371e-02  2.2044786524637219e-02  2.1973656711282926e-02  2.1912879450311441e-02  2.1862730679675070e-02  2.1823439402944126e-02  2.1795185398374106e-02  2.1778097840087170e-02  2.1772254610093925e-02  2.1777682161159547e-02  2.1794355826895581e-02  2.1822200533514004e-02  2.1861091979095623e-02  2.1910858368571148e-02  2.1971282848840753e-02  2.2042106824930539e-02  2.2123034267492445e-02  2.2213737069791403e-02  2.2313861341221375e-02  2.2423034266401951e-02  2.2540870819570673e-02  2.2666979187389701e-02  2.2800963173704822e-02  2.2942419346308068e-02  2.3090926023539828e-02  2.3246020702546055e-02  2.3407162171813461e-02  2.3573673296296851e-02  2.3744660384557539e-02  2.3918904936445922e-02  2.4094723147697207e-02  2.4269787485591190e-02  2.4440902692242406e-02  2.4603726166187584e-02  2.4752421197879446e-02  2.4879234630674135e-02  2.4974004347770411e-02  2.5023635036902026e-02  2.5011641647270176e-02  2.4917949514362589e-02  2.4719237921173011e-02  2.4390164982594852e-02  2.3905749498037122e-02  2.3245038097513326e-02  2.2396129835816611e-02  2.1362502646312904e-02  2.0169048076579904e-02  1.8862678600613834e-02  1.7502611507709161e-02  1.6148783736852308e-02  1.4868922413051447e-02  1.3750991686755601e-02  1.2873911658833927e-02  1.2263180930319259e-02  1.1897354116749359e-02  1.1723536090915258e-02  1.1668037515253190e-02  1.1680877664688758e-02  2.2297088913659547e-02  2.2288346062147604e-02  1.1665175279646244e-02  1.1669072849868112e-02  1.1811699185314131e-02  1.2183903743169334e-02  1.2885289414666167e-02  1.3979438337237492e-02  1.5457810240519020e-02  1.7224682634819431e-02  1.9161118044400398e-02  2.1171433556524479e-02  2.3149803991874378e-02  2.4968772696297027e-02  2.6518601047462863e-02  2.7738651310338674e-02  2.8618332747580133e-02  2.9182119304426987e-02  2.9473696049629756e-02  2.9544410903321796e-02  2.9445685083800976e-02  2.9224258883711499e-02  2.8919650895954118e-02  2.8563367095816278e-02  2.8179314805733765e-02  2.7784870183896589e-02  2.7392164309088758e-02  2.7009315223899228e-02  2.6641475482991533e-02  2.6291661800429786e-02  2.5961385979695693e-02  2.5651126221267171e-02  2.5360678372772512e-02  2.5089418702669043e-02  2.4836500264511004e-02  2.4600997312589634e-02  2.4382007468628369e-02  2.4178718951457609e-02  2.3990449239786774e-02  2.3816661187794790e-02  2.3656962364947926e-02  2.3511092891781250e-02  2.3378906339663132e-02  2.3260347367325223e-02  2.3155428843468932e-02  2.3064210333059481e-02  2.2986779074657820e-02  2.2923234001953893e-02  2.2873672923725608e-02  2.2838182739055232e-02  2.2816832423395446e-02  2.2809668457941606e-02  2.2816712451918079e-02  2.2837960764521256e-02  2.2873386027181662e-02  2.2922940625864294e-02  2.2986562239789725e-02  2.3064181634442384e-02  2.3155732915442664e-02  2.3261166374316772e-02  2.3380463920582781e-02  2.3513656830800353e-02  2.3660845149434256e-02  2.3822217566045616e-02  2.3998069983019614e-02  2.4188820246089468e-02  2.4395015830712234e-02  2.4617330599807391e-02  2.4856546186299060e-02  2.5113513150334575e-02  2.5389086620580717e-02  2.5684030309183901e-02  2.5998881123939714e-02  2.6333763249416241e-02  2.6688134947939826e-02  2.7060443268319058e-02  2.7447652595409305e-02  2.7844605808361456e-02  2.8243177914585235e-02  2.8631201193440751e-02  2.8991189939296974e-02  2.9298984710656083e-02  2.9522577710137440e-02  2.9621562560311166e-02  2.9547825778495147e-02  2.9248165696396732e-02  2.8669414580045297e-02  2.7766565571822645e-02  2.6514973267137310e-02  2.4928206604601103e-02  2.3077739727479646e-02  2.1091860671640358e-02  1.9103456605680143e-02  1.7187787398779145e-02  1.5409461573259741e-02  1.3908967869790127e-02  1.2815441201107818e-02  1.2132157445686839e-02  1.1784394857407739e-02  1.1663321778484764e-02  1.1669316223296356e-02  2.2292231601755388e-02  2.2287018238234459e-02  1.1657332310812153e-02  1.1684556248463436e-02  1.1978220022378666e-02  1.2721016379550681e-02  1.4078302549183564e-02  1.6108676716051186e-02  1.8667399144312698e-02  2.1529239066345469e-02  2.4592655041738524e-02  2.7758109983922079e-02  3.0778474497806053e-02  3.3373696015816787e-02  3.5370313142122647e-02  3.6720976756582514e-02  3.7464335254238146e-02  3.7685497355815611e-02  3.7489366726961598e-02  3.6983097975169299e-02  3.6264804735485559e-02  3.541732135