<?xml version="1.0"?>
<VTKFile type="UnstructuredGrid"  version="0.1"  >
<UnstructuredGrid>
<Piece  NumberOfPoints="10201" NumberOfCells="20000">
<Points>
<DataArray  type="Float64"  NumberOfComponents="3"  format="ascii">0 0 0  0.015 0 0  0.03 0 0  0.045 0 0  0.06 0 0  0.075 0 0  0.09 0 0  0.105 0 0  0.12 0 0  0.135 0 0  0.15 0 0  0.165 0 0  0.18 0 0  0.195 0 0  0.21 0 0  0.225 0 0  0.24 0 0  0.255 0 0  0.27 0 0  0.285 0 0  0.3 0 0  0.315 0 0  0.33 0 0  0.345 0 0  0.36 0 0  0.375 0 0  0.39 0 0  0.405 0 0  0.42 0 0  0.435 0 0  0.45 0 0  0.465 0 0  0.48 0 0  0.495 0 0  0.51 0 0  0.525 0 0  0.54 0 0  0.555 0 0  0.57 0 0  0.585 0 0  0.6 0 0  0.615 0 0  0.63 0 0  0.645 0 0  0.66 0 0  0.675 0 0  0.6899999999999999 0 0  0.705 0 0  0.72 0 0  0.735 0 0  0.75 0 0  0.765 0 0  0.78 0 0  0.795 0 0  0.8100000000000001 0 0  0.825 0 0  0.84 0 0  0.855 0 0  0.87 0 0  0.885 0 0  0.9 0 0  0.915 0 0  0.93 0 0  0.945 0 0  0.96 0 0  0.975 0 0  0.99 0 0  1.005 0 0  1.02 0 0  1.035 0 0  1.05 0 0  1.065 0 0  1.08 0 0  1.095 0 0  1.11 0 0  1.125 0 0  1.14 0 0  1.155 0 0  1.17 0 0  1.185 0 0  1.2 0 0  1.215 0 0  1.23 0 0  1.245 0 0  1.26 0 0  1.275 0 0  1.29 0 0  1.305 0 0  1.32 0 0  1.335 0 0  1.35 0 0  1.365 0 0  1.38 0 0  1.395 0 0  1.41 0 0  1.425 0 0  1.44 0 0  1.455 0 0  1.47 0 0  1.485 0 0  1.5 0 0  0 0.01 0  0.015 0.01 0  0.03 0.01 0  0.045 0.01 0  0.06 0.01 0  0.075 0.01 0  0.09 0.01 0  0.105 0.01 0  0.12 0.01 0  0.135 0.01 0  0.15 0.01 0  0.165 0.01 0  0.18 0.01 0  0.195 0.01 0  0.21 0.01 0  0.225 0.01 0  0.24 0.01 0  0.255 0.01 0  0.27 0.01 0  0.285 0.01 0  0.3 0.01 0  0.315 0.01 0  0.33 0.01 0  0.345 0.01 0  0.36 0.01 0  0.375 0.01 0  0.39 0.01 0  0.405 0.01 0  0.42 0.01 0  0.435 0.01 0  0.45 0.01 0  0.465 0.01 0  0.48 0.01 0  0.495 0.01 0  0.51 0.01 0  0.525 0.01 0  0.54 0.01 0  0.555 0.01 0  0.57 0.01 0  0.585 0.01 0  0.6 0.01 0  0.615 0.01 0  0.63 0.01 0  0.645 0.01 0  0.66 0.01 0  0.675 0.01 0  0.6899999999999999 0.01 0  0.705 0.01 0  0.72 0.01 0  0.735 0.01 0  0.75 0.01 0  0.765 0.01 0  0.78 0.01 0  0.795 0.01 0  0.8100000000000001 0.01 0  0.825 0.01 0  0.84 0.01 0  0.855 0.01 0  0.87 0.01 0  0.885 0.01 0  0.9 0.01 0  0.915 0.01 0  0.93 0.01 0  0.945 0.01 0  0.96 0.01 0  0.975 0.01 0  0.99 0.01 0  1.005 0.01 0  1.02 0.01 0  1.035 0.01 0  1.05 0.01 0  1.065 0.01 0  1.08 0.01 0  1.095 0.01 0  1.11 0.01 0  1.125 0.01 0  1.14 0.01 0  1.155 0.01 0  1.17 0.01 0  1.185 0.01 0  1.2 0.01 0  1.215 0.01 0  1.23 0.01 0  1.245 0.01 0  1.26 0.01 0  1.275 0.01 0  1.29 0.01 0  1.305 0.01 0  1.32 0.01 0  1.335 0.01 0  1.35 0.01 0  1.365 0.01 0  1.38 0.01 0  1.395 0.01 0  1.41 0.01 0  1.425 0.01 0  1.44 0.01 0  1.455 0.01 0  1.47 0.01 0  1.485 0.01 0  1.5 0.01 0  0 0.02 0  0.015 0.02 0  0.03 0.02 0  0.045 0.02 0  0.06 0.02 0  0.075 0.02 0  0.09 0.02 0  0.105 0.02 0  0.12 0.02 0  0.135 0.02 0  0.15 0.02 0  0.165 0.02 0  0.18 0.02 0  0.195 0.02 0  0.21 0.02 0  0.225 0.02 0  0.24 0.02 0  0.255 0.02 0  0.27 0.02 0  0.285 0.02 0  0.3 0.02 0  0.315 0.02 0  0.33 0.02 0  0.345 0.02 0  0.36 0.02 0  0.375 0.02 0  0.39 0.02 0  0.405 0.02 0  0.42 0.02 0  0.435 0.02 0  0.45 0.02 0  0.465 0.02 0  0.48 0.02 0  0.495 0.02 0  0.51 0.02 0  0.525 0.02 0  0.54 0.02 0  0.555 0.02 0  0.57 0.02 0  0.585 0.02 0  0.6 0.02 0  0.615 0.02 0  0.63 0.02 0  0.645 0.02 0  0.66 0.02 0  0.675 0.02 0  0.6899999999999999 0.02 0  0.705 0.02 0  0.72 0.02 0  0.735 0.02 0  0.75 0.02 0  0.765 0.02 0  0.78 0.02 0  0.795 0.02 0  0.8100000000000001 0.02 0  0.825 0.02 0  0.84 0.02 0  0.855 0.02 0  0.87 0.02 0  0.885 0.02 0  0.9 0.02 0  0.915 0.02 0  0.93 0.02 0  0.945 0.02 0  0.96 0.02 0  0.975 0.02 0  0.99 0.02 0  1.005 0.02 0  1.02 0.02 0  1.035 0.02 0  1.05 0.02 0  1.065 0.02 0  1.08 0.02 0  1.095 0.02 0  1.11 0.02 0  1.125 0.02 0  1.14 0.02 0  1.155 0.02 0  1.17 0.02 0  1.185 0.02 0  1.2 0.02 0  1.215 0.02 0  1.23 0.02 0  1.245 0.02 0  1.26 0.02 0  1.275 0.02 0  1.29 0.02 0  1.305 0.02 0  1.32 0.02 0  1.335 0.02 0  1.35 0.02 0  1.365 0.02 0  1.38 0.02 0  1.395 0.02 0  1.41 0.02 0  1.425 0.02 0  1.44 0.02 0  1.455 0.02 0  1.47 0.02 0  1.485 0.02 0  1.5 0.02 0  0 0.03 0  0.015 0.03 0  0.03 0.03 0  0.045 0.03 0  0.06 0.03 0  0.075 0.03 0  0.09 0.03 0  0.105 0.03 0  0.12 0.03 0  0.135 0.03 0  0.15 0.03 0  0.165 0.03 0  0.18 0.03 0  0.195 0.03 0  0.21 0.03 0  0.225 0.03 0  0.24 0.03 0  0.255 0.03 0  0.27 0.03 0  0.285 0.03 0  0.3 0.03 0  0.315 0.03 0  0.33 0.03 0  0.345 0.03 0  0.36 0.03 0  0.375 0.03 0  0.39 0.03 0  0.405 0.03 0  0.42 0.03 0  0.435 0.03 0  0.45 0.03 0  0.465 0.03 0  0.48 0.03 0  0.495 0.03 0  0.51 0.03 0  0.525 0.03 0  0.54 0.03 0  0.555 0.03 0  0.57 0.03 0  0.585 0.03 0  0.6 0.03 0  0.615 0.03 0  0.63 0.03 0  0.645 0.03 0  0.66 0.03 0  0.675 0.03 0  0.6899999999999999 0.03 0  0.705 0.03 0  0.72 0.03 0  0.735 0.03 0  0.75 0.03 0  0.765 0.03 0  0.78 0.03 0  0.795 0.03 0  0.8100000000000001 0.03 0  0.825 0.03 0  0.84 0.03 0  0.855 0.03 0  0.87 0.03 0  0.885 0.03 0  0.9 0.03 0  0.915 0.03 0  0.93 0.03 0  0.945 0.03 0  0.96 0.03 0  0.975 0.03 0  0.99 0.03 0  1.005 0.03 0  1.02 0.03 0  1.035 0.03 0  1.05 0.03 0  1.065 0.03 0  1.08 0.03 0  1.095 0.03 0  1.11 0.03 0  1.125 0.03 0  1.14 0.03 0  1.155 0.03 0  1.17 0.03 0  1.185 0.03 0  1.2 0.03 0  1.215 0.03 0  1.23 0.03 0  1.245 0.03 0  1.26 0.03 0  1.275 0.03 0  1.29 0.03 0  1.305 0.03 0  1.32 0.03 0  1.335 0.03 0  1.35 0.03 0  1.365 0.03 0  1.38 0.03 0  1.395 0.03 0  1.41 0.03 0  1.425 0.03 0  1.44 0.03 0  1.455 0.03 0  1.47 0.03 0  1.485 0.03 0  1.5 0.03 0  0 0.04 0  0.015 0.04 0  0.03 0.04 0  0.045 0.04 0  0.06 0.04 0  0.075 0.04 0  0.09 0.04 0  0.105 0.04 0  0.12 0.04 0  0.135 0.04 0  0.15 0.04 0  0.165 0.04 0  0.18 0.04 0  0.195 0.04 0  0.21 0.04 0  0.225 0.04 0  0.24 0.04 0  0.255 0.04 0  0.27 0.04 0  0.285 0.04 0  0.3 0.04 0  0.315 0.04 0  0.33 0.04 0  0.345 0.04 0  0.36 0.04 0  0.375 0.04 0  0.39 0.04 0  0.405 0.04 0  0.42 0.04 0  0.435 0.04 0  0.45 0.04 0  0.465 0.04 0  0.48 0.04 0  0.495 0.04 0  0.51 0.04 0  0.525 0.04 0  0.54 0.04 0  0.555 0.04 0  0.57 0.04 0  0.585 0.04 0  0.6 0.04 0  0.615 0.04 0  0.63 0.04 0  0.645 0.04 0  0.66 0.04 0  0.675 0.04 0  0.6899999999999999 0.04 0  0.705 0.04 0  0.72 0.04 0  0.735 0.04 0  0.75 0.04 0  0.765 0.04 0  0.78 0.04 0  0.795 0.04 0  0.8100000000000001 0.04 0  0.825 0.04 0  0.84 0.04 0  0.855 0.04 0  0.87 0.04 0  0.885 0.04 0  0.9 0.04 0  0.915 0.04 0  0.93 0.04 0  0.945 0.04 0  0.96 0.04 0  0.975 0.04 0  0.99 0.04 0  1.005 0.04 0  1.02 0.04 0  1.035 0.04 0  1.05 0.04 0  1.065 0.04 0  1.08 0.04 0  1.095 0.04 0  1.11 0.04 0  1.125 0.04 0  1.14 0.04 0  1.155 0.04 0  1.17 0.04 0  1.185 0.04 0  1.2 0.04 0  1.215 0.04 0  1.23 0.04 0  1.245 0.04 0  1.26 0.04 0  1.275 0.04 0  1.29 0.04 0  1.305 0.04 0  1.32 0.04 0  1.335 0.04 0  1.35 0.04 0  1.365 0.04 0  1.38 0.04 0  1.395 0.04 0  1.41 0.04 0  1.425 0.04 0  1.44 0.04 0  1.455 0.04 0  1.47 0.04 0  1.485 0.04 0  1.5 0.04 0  0 0.05 0  0.015 0.05 0  0.03 0.05 0  0.045 0.05 0  0.06 0.05 0  0.075 0.05 0  0.09 0.05 0  0.105 0.05 0  0.12 0.05 0  0.135 0.05 0  0.15 0.05 0  0.165 0.05 0  0.18 0.05 0  0.195 0.05 0  0.21 0.05 0  0.225 0.05 0  0.24 0.05 0  0.255 0.05 0  0.27 0.05 0  0.285 0.05 0  0.3 0.05 0  0.315 0.05 0  0.33 0.05 0  0.345 0.05 0  0.36 0.05 0  0.375 0.05 0  0.39 0.05 0  0.405 0.05 0  0.42 0.05 0  0.435 0.05 0  0.45 0.05 0  0.465 0.05 0  0.48 0.05 0  0.495 0.05 0  0.51 0.05 0  0.525 0.05 0  0.54 0.05 0  0.555 0.05 0  0.57 0.05 0  0.585 0.05 0  0.6 0.05 0  0.615 0.05 0  0.63 0.05 0  0.645 0.05 0  0.66 0.05 0  0.675 0.05 0  0.6899999999999999 0.05 0  0.705 0.05 0  0.72 0.05 0  0.735 0.05 0  0.75 0.05 0  0.765 0.05 0  0.78 0.05 0  0.795 0.05 0  0.8100000000000001 0.05 0  0.825 0.05 0  0.84 0.05 0  0.855 0.05 0  0.87 0.05 0  0.885 0.05 0  0.9 0.05 0  0.915 0.05 0  0.93 0.05 0  0.945 0.05 0  0.96 0.05 0  0.975 0.05 0  0.99 0.05 0  1.005 0.05 0  1.02 0.05 0  1.035 0.05 0  1.05 0.05 0  1.065 0.05 0  1.08 0.05 0  1.095 0.05 0  1.11 0.05 0  1.125 0.05 0  1.14 0.05 0  1.155 0.05 0  1.17 0.05 0  1.185 0.05 0  1.2 0.05 0  1.215 0.05 0  1.23 0.05 0  1.245 0.05 0  1.26 0.05 0  1.275 0.05 0  1.29 0.05 0  1.305 0.05 0  1.32 0.05 0  1.335 0.05 0  1.35 0.05 0  1.365 0.05 0  1.38 0.05 0  1.395 0.05 0  1.41 0.05 0  1.425 0.05 0  1.44 0.05 0  1.455 0.05 0  1.47 0.05 0  1.485 0.05 0  1.5 0.05 0  0 0.06 0  0.015 0.06 0  0.03 0.06 0  0.045 0.06 0  0.06 0.06 0  0.075 0.06 0  0.09 0.06 0  0.105 0.06 0  0.12 0.06 0  0.135 0.06 0  0.15 0.06 0  0.165 0.06 0  0.18 0.06 0  0.195 0.06 0  0.21 0.06 0  0.225 0.06 0  0.24 0.06 0  0.255 0.06 0  0.27 0.06 0  0.285 0.06 0  0.3 0.06 0  0.315 0.06 0  0.33 0.06 0  0.345 0.06 0  0.36 0.06 0  0.375 0.06 0  0.39 0.06 0  0.405 0.06 0  0.42 0.06 0  0.435 0.06 0  0.45 0.06 0  0.465 0.06 0  0.48 0.06 0  0.495 0.06 0  0.51 0.06 0  0.525 0.06 0  0.54 0.06 0  0.555 0.06 0  0.57 0.06 0  0.585 0.06 0  0.6 0.06 0  0.615 0.06 0  0.63 0.06 0  0.645 0.06 0  0.66 0.06 0  0.675 0.06 0  0.6899999999999999 0.06 0  0.705 0.06 0  0.72 0.06 0  0.735 0.06 0  0.75 0.06 0  0.765 0.06 0  0.78 0.06 0  0.795 0.06 0  0.8100000000000001 0.06 0  0.825 0.06 0  0.84 0.06 0  0.855 0.06 0  0.87 0.06 0  0.885 0.06 0  0.9 0.06 0  0.915 0.06 0  0.93 0.06 0  0.945 0.06 0  0.96 0.06 0  0.975 0.06 0  0.99 0.06 0  1.005 0.06 0  1.02 0.06 0  1.035 0.06 0  1.05 0.06 0  1.065 0.06 0  1.08 0.06 0  1.095 0.06 0  1.11 0.06 0  1.125 0.06 0  1.14 0.06 0  1.155 0.06 0  1.17 0.06 0  1.185 0.06 0  1.2 0.06 0  1.215 0.06 0  1.23 0.06 0  1.245 0.06 0  1.26 0.06 0  1.275 0.06 0  1.29 0.06 0  1.305 0.06 0  1.32 0.06 0  1.335 0.06 0  1.35 0.06 0  1.365 0.06 0  1.38 0.06 0  1.395 0.06 0  1.41 0.06 0  1.425 0.06 0  1.44 0.06 0  1.455 0.06 0  1.47 0.06 0  1.485 0.06 0  1.5 0.06 0  0 0.07000000000000001 0  0.015 0.07000000000000001 0  0.03 0.07000000000000001 0  0.045 0.07000000000000001 0  0.06 0.07000000000000001 0  0.075 0.07000000000000001 0  0.09 0.07000000000000001 0  0.105 0.07000000000000001 0  0.12 0.07000000000000001 0  0.135 0.07000000000000001 0  0.15 0.07000000000000001 0  0.165 0.07000000000000001 0  0.18 0.07000000000000001 0  0.195 0.07000000000000001 0  0.21
[...]
<PointData  Scalars="ControlVisualisation"> 
<DataArray  type="Float64"  Name="ControlVisualisation"  format="ascii">1.1071872157580553e-01  6.4848857772013740e-02  6.4842653568309316e-02  6.4833963096596878e-02  6.4825668605681772e-02  6.4822211444583056e-02  6.4828698724731904e-02  6.4849647463802076e-02  6.4888047301371682e-02  6.4944985837218611e-02  6.5019699200702247e-02  6.5109785028443445e-02  6.5211500935949740e-02  6.5320209245623248e-02  6.5430968293841721e-02  6.5539146470543971e-02  6.5640902757287595e-02  6.5733445515632982e-02  6.5815072749917658e-02  6.5885054671948565e-02  6.5943433576929014e-02  6.5990802851653999e-02  6.6028104574915217e-02  6.6056464741974449e-02  6.6077070787946668e-02  6.6091087870481263e-02  6.6099606775589098e-02  6.6103615588474884e-02  6.6103988049507748e-02  6.6101482876405021e-02  6.6096749764244941e-02  6.6090339024213449e-02  6.6082712815504915e-02  6.6074256659804972e-02  6.6065290451335232e-02  6.6056078529878964e-02  6.6046838620581222e-02  6.6037749592864792e-02  6.6028958081355255e-02  6.6020584062383078e-02  6.6012725501959982e-02  6.6005462199209219e-02  6.5998858942724295e-02  6.5992968087757453e-02  6.5987831649265430e-02  6.5983482987346714e-02  6.5979948152899898e-02  6.5977246943342394e-02  6.5975393709241936e-02  6.5974397941457666e-02  6.5974264660617579e-02  6.5974994621971123e-02  6.5976584343476391e-02  6.5979025957074666e-02  6.5982306878801494e-02  6.5986409284687450e-02  6.5991309374873020e-02  6.5996976397952226e-02  6.6003371399975780e-02  6.6010445650914684e-02  6.6018138689980729e-02  6.6026375917793922e-02  6.6035065649802521e-02  6.6044095532369673e-02  6.6053328212749354e-02  6.6062596145220018e-02  6.6071695420668389e-02  6.6080378518908300e-02  6.6088345919601929e-02  6.6095236574011257e-02  6.6100617352502514e-02  6.6103971767917769e-02  6.6104688561549649e-02  6.6102051170946557e-02  6.6095229736421887e-02  6.6083278186374314e-02  6.6065140130114552e-02  6.6039668726814993e-02  6.6005667270647883e-02  6.5961958529067027e-02  6.5907491158918904e-02  6.5841489560620803e-02  6.5763647578610016e-02  6.5674354565951373e-02  6.5574923311169417e-02  6.5467764792006333e-02  6.5356432325927735e-02  6.5245454043510634e-02  6.5139910369817908e-02  6.5044802812446290e-02  6.4964366601222012e-02  6.4901512778062581e-02  6.4857482057225385e-02  6.4831652337977039e-02  6.4821477267571703e-02  6.4822745801653273e-02  6.4830368535541791e-02  6.4839603175042129e-02  6.4846935801475547e-02  6.4850998975518215e-02  2.0470403013469143e-01  6.4849724248279700e-02  3.4754522141835303e-02  3.4733773680634371e-02  3.4707915866011380e-02  3.4692081502083694e-02  3.4710574423529879e-02  3.4791392936227919e-02  3.4959591387945327e-02  3.5230960932233921e-02  3.5607826902076284e-02  3.6078365368452832e-02  3.6619600550319487e-02  3.7202683206616766e-02  3.7798311734426965e-02  3.8380753350176849e-02  3.8929996761434396e-02  3.9432307358791066e-02  3.9879723935145175e-02  4.0269017597365078e-02  4.0600499464969284e-02  4.0876910223481736e-02  4.1102499424739217e-02  4.1282320794460259e-02  4.1421726456905630e-02  4.1526025351067308e-02  4.1600267844387244e-02  4.1649122154996970e-02  4.1676814401555358e-02  4.1687110743843236e-02  4.1683326053330971e-02  4.1668348419614448e-02  4.1644672426359705e-02  4.1614436647751482e-02  4.1579462452353118e-02  4.1541292216831602e-02  4.1501225695786750e-02  4.1460353717435186e-02  4.1419588701992680e-02  4.1379691755002071e-02  4.1341296298404925e-02  4.1304928361805243e-02  4.1271023771718304e-02  4.1239942537920432e-02  4.1211980767535225e-02  4.1187380435996318e-02  4.1166337306508594e-02  4.1149007275365461e-02  4.1135511362859048e-02  4.1125939531610464e-02  4.1120353475770643e-02  4.1118788485311468e-02  4.1121254453153941e-02  4.1127736069253351e-02  4.1138192205598056e-02  4.1152554483484260e-02  4.1170724973304554e-02  4.1192572962710360e-02  4.1217930696156882e-02  4.1246587961752290e-02  4.1278285379014151e-02  4.1312706212485825e-02  4.1349466517867826e-02  4.1388103411199764e-02  4.1428061249298438e-02  4.1468675509962596e-02  4.1509154177344229e-02  4.1548556454357594e-02  4.1585768650920063e-02  4.1619477109442589e-02  4.1648138055422598e-02  4.1669944306688619e-02  4.1682788907918877e-02  4.1684226084054699e-02  4.1671430561660214e-02  4.1641157506896891e-02  4.1589707247662928e-02  4.1512901767489160e-02  4.1406083847751088e-02  4.1264154741952122e-02  4.1081672497875685e-02  4.0853040502703580e-02  4.0572824304277055e-02  4.0236243502201882e-02  3.9839892056118938e-02  3.9382738602592997e-02  3.8867434307139015e-02  3.8301880498527521e-02  3.7700831204069689e-02  3.7086969852595325e-02  3.6490444251433773e-02  3.5945634254484986e-02  3.5484732396081173e-02  3.5129903494822562e-02  3.4887773933916032e-02  3.4748979157936115e-02  3.4692016212965138e-02  3.4688995277315983e-02  3.4712057737194921e-02  3.4738769623080284e-02  3.4758567742184478e-02  6.4851118946644970e-02  6.4845550419429923e-02  3.4742279882113987e-02  3.4710297436267898e-02  3.4682332397033902e-02  3.4693764522477008e-02  3.4806702131962963e-02  3.5095304129454177e-02  3.5628412124880660e-02  3.6445467654136574e-02  3.7536955162097749e-02  3.8843794878982027e-02  4.0277211164034883e-02  4.1745760283517688e-02  4.3174953266305313e-02  4.4514192132830151e-02  4.5734491574837624e-02  4.6822862399243187e-02  4.7777067644035581e-02  4.8601758311993565e-02  4.9305710316973478e-02  4.9899768350355131e-02  5.0395327366779166e-02  5.0803313792855867e-02  5.1133629242324230e-02  5.1394973859020893e-02  5.1594933245821997e-02  5.1740208080798440e-02  5.1836883240420684e-02  5.1890663077529993e-02  5.1907032393885978e-02  5.1891332112674868e-02  5.1848760518657215e-02  5.1784323354358258e-02  5.1702759504183897e-02  5.1608465629995381e-02  5.1505436033422086e-02  5.1397226062067654e-02  5.1286940621494595e-02  5.1177244763067974e-02  5.1070390948938921e-02  5.0968257024743037e-02  5.0872389505238064e-02  5.0784047894382379e-02  5.0704247024381408e-02  5.0633795548609223e-02  5.0573329550957322e-02  5.0523340934652577e-02  5.0484200612096075e-02  5.0456176734706495e-02  5.0439448298725612e-02  5.0434114449625131e-02  5.0440199759923809e-02  5.0457655659884693e-02  5.0486358099478455e-02  5.0526101426648561e-02  5.0576588369515049e-02  5.0637415936583954e-02  5.0708057038297054e-02  5.0787837643051240e-02  5.0875909412430989e-02  5.0971217999164715e-02  5.1072467574076991e-02  5.1178082730193905e-02  5.1286169663833592e-02  5.1394479398358638e-02  5.1500376706109116e-02  5.1600819022231313e-02  5.1692349677515972e-02  5.1771108821657932e-02  5.1832863041875711e-02  5.1873050756696376e-02  5.1886835262178549e-02  5.1869151761185617e-02  5.1814730359805689e-02  5.1718075833029939e-02  5.1573388827977518e-02  5.1374423245866351e-02  5.1114291145636231e-02  5.0785248544874893e-02  5.0378520756976991e-02  4.9884250081540148e-02  4.9291664317689846e-02  4.8589561553606941e-02  4.7767178807524027e-02  4.6815476650052402e-02  4.5728898348859098e-02  4.4507863780524896e-02  4.3162641427029691e-02  4.1719359679166478e-02  4.0227682850978851e-02  3.8766135456405518e-02  3.7436554098161545e-02  3.6339756198269513e-02  3.5538415403123524e-02  3.5033035272416274e-02  3.4771303620159358e-02  3.4677391335648733e-02  3.4676667177477506e-02  3.4709115401764128e-02  3.4744876626542902e-02  6.4848482081526243e-02  6.4838046488973372e-02  3.4723601705411972e-02  3.4691122963082341e-02  3.4687209700236754e-02  3.4766951518573466e-02  3.5037011821056646e-02  3.5628716406566611e-02  3.6654556420178064e-02  3.8147270470955459e-02  4.0034291701189210e-02  4.2172631654813553e-02  4.4408307609405208e-02  4.6616608911212595e-02  4.8713103237291673e-02  5.0647525421531198e-02  5.2393414465558293e-02  5.3939781303402601e-02  5.5285930367751729e-02  5.6438364197356365e-02  5.7408595349052537e-02  5.8211313736329776e-02  5.8862827997544082e-02  5.9379841079873652e-02  5.9778587528877859e-02  6.0074299559942111e-02  6.0280935247329158e-02  6.0411095367830514e-02  6.0476062755531065e-02  6.0485910337272089e-02  6.0449637202050641e-02  6.0375304715831954e-02  6.0270156116989590e-02  6.0140712516912845e-02  5.9992845248934681e-02  5.9831828847267482e-02  5.9662380746139852e-02  5.9488693743125647e-02  5.9314466001143235e-02  5.9142931682526934e-02  5.8976893639624890e-02  5.8818758292592227e-02  5.8670571984595084e-02  5.8534057677371881e-02  5.8410650763036705e-02  5.8301532911397509e-02  5.8207663029761353e-02  5.8129804718419456e-02  5.8068549815388892e-02  5.8024337790394620e-02  5.7997470898781489e-02  5.7988125074819236e-02  5.7996356598708124e-02  5.8022104576827140e-02  5.8065189274352683e-02  5.8125306330463214e-02  5.8202016890946173e-02  5.8294733678049979e-02  5.8402703080785032e-02  5.8524983385155299e-02  5.8660419367206451e-02  5.8807613598837391e-02  5.8964894945863773e-02  5.9130284866425034e-02  5.9301462195376964e-02  5.9475727023606803e-02  5.9649964031536745e-02  5.9820605126435708e-02  5.9983590358433446e-02  6.0134325003447578e-02  6.0267629485364446e-02  6.0377677840062684e-02  6.0457920175370938e-02  6.0500985692145987e-02  6.0498565895709837e-02  6.0441283017565232e-02  6.0318556389743309e-02  6.0118489029905520e-02  5.9827806928583263e-02  5.9431893021547284e-02  5.8914965130119755e-02  5.8260450601181492e-02  5.7451607649843715e-02  5.6472430674515586e-02  5.5308851009624904e-02  5.3950214295793289e-02  5.2391022268143531e-02  5.0633049377143330e-02  4.8688231724755060e-02  4.6583071775046447e-02  4.4365470444387468e-02  4.2114587989905854e-02  3.9951721183609054e-02  3.8039445113887779e-02  3.6541120257872393e-02  3.5538356558180009e-02  3.4982386652022787e-02  3.4740866180908409e-02  3.4677128535459512e-02  3.4688214863581125e-02  3.4727500801322898e-02  6.4843067253871303e-02  6.4827086266685985e-02  3.4695225628391495e-02  3.4664639796075647e-02  3.4706205602451287e-02  3.4909751351806136e-02  3.5458926848231806e-02  3.6562130308400727e-02  3.8339002508397099e-02  4.0735672251510840e-02  4.3564391769370429e-02  4.6607254090210874e-02  4.9683375284189826e-02  5.2662931928950496e-02  5.5457801675505472e-02  5.8010151005227585e-02  6.0284856283806171e-02  6.2264952183605032e-02  6.3948361059226674e-02  6.5344898274882476e-02  6.6473246981784473e-02  6.7357980299772136e-02  6.8026850476762338e-02  6.8508541838626758e-02  6.8830984511660379e-02  6.9020223538460143e-02  6.9099769134153263e-02  6.9090322882437161e-02  6.9009771624581190e-02  6.8873353780939603e-02  6.8693922385882705e-02  6.8482249371895912e-02  6.8247333511593233e-02  6.7996688765688817e-02  6.7736600503182226e-02  6.7472344618899116e-02  6.7208369522478911e-02  6.6948443976421024e-02  6.6695775256361861e-02  6.6453102633998937e-02  6.6222771019860349e-02  6.6006789076317074e-02  6.5806875398447415e-02  6.5624495610487624e-02  6.5460892535174772e-02  6.5317111030747194e-02  6.5194018550986027e-02  6.5092322191474802e-02  6.5012582690048309e-02  6.4955225656721294e-02  6.4920550210941980e-02  6.4908735111960866e-02  6.4919842427307292e-02  6.4953818758688830e-02  6.5010494028872032e-02  6.5089577818623665e-02  6.5190653237260629e-02  6.5313168276650485e-02  6.5456424564044796e-02  6.5619563353845750e-02  6.5801548487329248e-02  6.6001145880250106e-02  6.6216898850010530e-02  6.6447098245233441e-02  6.6689745905974068e-02  6.6942509374640941e-02  6.7202665114095700e-02  6.7467026731557606e-02  6.7731853910245846e-02  6.7992737129483921e-02  6.8244452923018784e-02  6.8480784707683984e-02  6.8694305474548550e-02  6.8876121393010650e-02  6.9015580228488430e-02  6.9099956188056227e-02  6.9114134059226617e-02  6.9040330881090475e-02  6.8857912656605028e-02  6.8543384888012010e-02  6.8070654401898231e-02  6.7411667223931729e-02  6.6537510584567999e-02  6.5420015192731606e-02  6.4033812247066502e-02  6.2358737724598656e-02  6.0382540700341519e-02  5.8104123639947505e-02  5.5537845676620984e-02  5.2719181771335201e-02  4.9710761933007247e-02  4.6606504368579812e-02  4.3534209912405350e-02  4.0665020564935733e-02  3.8224456028461737e-02  3.6436094106955454e-02  3.5366652231993596e-02  3.4862628487576937e-02  3.4687865868637292e-02  3.4659224013949566e-02  3.4700856373572286e-02  6.4834287321357750e-02  6.4812858161290871e-02  3.4656789647989683e-02  3.4633846874238636e-02  3.4765006364996021e-02  3.5217567630397031e-02  3.6304656679289914e-02  3.8284139268861192e-02  4.1160688828464256e-02  4.4700487724738176e-02  4.8606203066074931e-02  5.2632728061772591e-02  5.6603381206967424e-02  6.0390434205930037e-02  6.3897261550868056e-02  6.7051531073629184e-02  6.9806964224200546e-02  7.2145334001829348e-02  7.4073447003833573e-02  7.5616296941643180e-02  7.6809779438541559e-02  7.7694905674883713e-02  7.8313803140901750e-02  7.8707146066708658e-02  7.8912615868625094e-02  7.8964091379882070e-02  7.8891349235255093e-02  7.8720106397607681e-02  7.8472275165735114e-02  7.8166334041645691e-02  7.7817746416331449e-02  7.7439382297665255e-02  7.7041915939412564e-02  7.6634184758291923e-02  7.6223503357160771e-02  7.5815931829829986e-02  7.5416500766704114e-02  7.5029397135056214e-02  7.4658116001285024e-02  7.4305583225264871e-02  7.3974254023598307e-02  7.3666191829256128e-02  7.3383131283176140e-02  7.3126528576557728e-02  7.2897601746112428e-02  7.2697363014243024e-02  7.2526644721433664e-02  7.2386120077083782e-02  7.2276319597856298e-02  7.2197643849951310e-02  7.2150372936408025e-02  7.2134673021751000e-02  7.2150600072898016e-02  7.2198100913781996e-02  7.2277011628851640e-02  7.2387053273210600e-02  7.2527824795845769e-02  7.2698792993713512e-02  7.2899279216026319e-02  7.3128442410184111e-02  7.3385257906608881e-02  7.3668491128823566e-02  7.3976665089306864e-02  7.4308020165724964e-02  7.4660464186888903e-02  7.5031510313055633e-02  7.5418199596994945e-02  7.5817004481967543e-02  7.6223708886747565e-02  7.6633260020605304e-02  7.7039586818936370e-02  7.7435380012407046e-02  7.7811829613807129e-02  7.8158317390133805e-02  7.8462065139430326e-02  7.8707745108345037e-02  7.8877067551557212e-02  7.8948373385461207e-02  7.8896278150793156e-02  7.8691437261172448e-02  7.8300530532766921e-02  7.7686592676402877e-02  7.6809841105821036e-02  7.5629172328642705e-02  7.4104523775343240e-02  7.2200338812900125e-02  6.9890353557982496e-02  6.7163551068213964e-02  6.4030175179500465e-02  6.0526269420366804e-02  5.6717677641233838e-02  5.2707021175722214e-02  4.8639358632440663e-02  4.4695365021210680e-02  4.1097248638439124e-02  3.8151965898734722e-02  3.6161770373749361e-02  3.5128901245829264e-02  3.4729534903026008e-02  3.4624051754202627e-02  3.4664307023166641e-02  6.4822157866337271e-02  6.4796474556855360e-02  3.4610562391247726e-02  3.4609066523050389e-02  3.4922700539898335e-02  3.5888155383271406e-02  3.7970803649539496e-02  4.1319125055471639e-02  4.5658975640221311e-02  5.0571553509315026e-02  5.5713499988070916e-02  6.0844845471757281e-02  6.5794378633355965e-02  7.0427026796346937e-02  7.4625672275283120e-02  7.8298421689002806e-02  8.1397689609111978e-02  8.3925485959649382e-02  8.5920354410346567e-02  8.7439065536239785e-02  8.8543401183343085e-02  8.9293452612796018e-02  8.9744918275054736e-02  8.9948163521336333e-02  8.9947963917977644e-02  8.9783559633422050e-02  8.9488905183862044e-02  8.9093056885304583e-02  8.8620646652004531e-02  8.8092394698950638e-02  8.7525623009116899e-02  8.6934742971927048e-02  8.6331701259290600e-02  8.5726376248061703e-02  8.5126923049776038e-02  8.4540068829636730e-02  8.3971362189339704e-02  8.3425381460934006e-02  8.2905907098633463e-02  8.2416063310220306e-02  8.1958433740256534e-02  8.1535155548892221e-02  8.1147995683778854e-02  8.0798412585382673e-02  8.0487606022907721e-02  8.0216557281289402e-02  7.9986061422484100e-02  7.9796753047634450e-02  7.9649126597734710e-02  7.9543552000226281e-02  7.9480286251973800e-02  7.9459481351439487e-02  7.9481188853312762e-02  7.9545361195725639e-02  7.9651849848607903e-02  7.9800400224746063e-02  7.9990643202685938e-02  8.0222082974573561e-02  8.0494080817255897e-02  8.0805834213340588e-02  8.1156350532181398e-02  8.1544414254667921e-02  8.1968546400214295e-02  8.2426954455662935e-02  8.2917470676248689e-02  8.3437476135163474e-02  8.3983807367109087e-02  8.4552641886049273e-02  8.5139358303650714e-02  8.5738366290648349e-02  8.6342901267206784e-02  8.6944778629957017e-02  8.7534102616046910e-02  8.8098925938219289e-02  8.8624858334049844e-02  8.9094625788369991e-02  8.9487587988332631e-02  8.9779230100654486e-02  8.9940656428339774e-02  8.9938126769662452e-02  8.9732688720962572e-02  8.9279967606282234e-02  8.8530185370781334e-02  8.7428531405843751e-02  8.5916230419333411e-02  8.3933276036451260e-02  8.1424839903330062e-02  7.8353542200547188e-02  7.4715771686670651e-02  7.0551522948768319e-02  6.5936644087920188e-02  6.0970192525777095e-02  5.5790416577213536e-02  5.0604430545045556e-02  4.5661580174631136e-02  4.1247368722191036e-02  3.7804580526141926e-02  3.5733412582479786e-02  3.4851721159268670e-02  3.4591336355833335e-02  3.4619480072153902e-02  6.4807150445875067e-02  6.4781279634546635e-02  3.4564509987947113e-02  3.4614971408688328e-02  3.5312322899673496e-02  3.7298712176147532e-02  4.1046507450835781e-02  4.6315762283780676e-02  5.2503501629884791e-02  5.9082424316127646e-02  6.5682792956168023e-02  7.2031616029159723e-02  7.7928559196068906e-02  8.3225840692136940e-02  8.7818863272437625e-02  9.1661342642846991e-02  9.4769729939134170e-02  9.7203083208706631e-02  9.9037474542995774e-02  1.0035040621762681e-01  1.0121518168142793e-01  1.0169971618860078e-01  1.0186628946935800e-01  1.0177127072656034e-01  1.0146487069290291e-01  1.0099109040760873e-01  1.0038791759974500e-01  9.9687728657737090e-02  9.8917821465759975e-02  9.8101008153306066e-02  9.7256213972071487e-02  9.6399046969172564e-02  9.5542318220913913e-02  9.4696503253692665e-02  9.3870142460352787e-02  9.3070182810826740e-02  9.2302265552232504e-02  9.1570965875211754e-02  9.0879990839785985e-02  9.0232341680850314e-02  8.9630446188910168e-02  8.9076266215093652e-02  8.8571384699837954e-02  8.8117075941141765e-02  8.7714362193643119e-02  8.7364059142872819e-02  8.7066812259719850e-02  8.6823125675272672e-02  8.6633384812941139e-02  8.6497873747758178e-02  8.6416787999267913e-02  8.6390243276325995e-02  8.6418280511551634e-02  8.6500867378536614e-02  8.6637896335925960e-02  8.6829179159247372e-02  8.7074437717641784e-02  8.7373290669929798e-02  8.7725235567353149e-02  8.8129625652188542e-02  8.8585640415343558e-02  8.9092248696623286e-02  8.9648162770156692e-02  9.0251781447401785e-02  9.0901119759995014e-02  9.1593722231651589e-02  9.2326556113260377e-02  9.3095880307868084e-02  9.3897085015421294e-02  9.4724496461092877e-02  9.5571140564858437e-02  9.6428459141618794e-02  9.7285972379237015e-02  9.8130882282789073e-02  9.8947613850479788e-02  9.9717294538428550e-02  1.0041717894687563e-01  1.0102003538569448e-01  1.0149352496906877e-01  1.0179962209457091e-01  1.0189414540519230e-01  1.0172648385524324e-01  1.0123959944690220e-01  1.0037035079081741e-01  9.9050129008862314e-02  9.7205901743449744e-02  9.4762519902801851e-02  9.1649089153373317e-02  8.7813796593726817e-02  8.3246294588258093e-02  7.7990839582416649e-02  7.2130454980577824e-02  6.5772901268594836e-02  5.9113349554167818e-02  5.2498806902685442e-02  4.6307924512307516e-02  4.0938876784948904e-02  3.7083343874382432e-02  3.5171494447488079e-02  3.4581403142174325e-02  3.4573148591005319e-02  6.4791049592170483e-02  6.4774856676458256e-02  3.4535310681419178e-02  3.4708228981693109e-02  3.6228048484524752e-02  4.0084331206883247e-02  4.6334987325199251e-02  5.4167679396139076e-02  6.2717375957934446e-02  7.1367635213381159e-02  7.9604179780563653e-02  8.7045097615394168e-02  9.3531121442532006e-02  9.9047606831899768e-02  1.0363605966616873e-01  1.0735831675937772e-01  1.1028331899756480e-01  1.1248278112490499e-01  1.1403158105811402e-01  1.1500805527751895e-01  1.1549210602742691e-01  1.155620024