<?xml version="1.0"?>
<VTKFile type="UnstructuredGrid"  version="0.1"  >
<UnstructuredGrid>
<Piece  NumberOfPoints="10201" NumberOfCells="20000">
<Points>
<DataArray  type="Float64"  NumberOfComponents="3"  format="ascii">0 0 0  0.015 0 0  0.03 0 0  0.045 0 0  0.06 0 0  0.075 0 0  0.09 0 0  0.105 0 0  0.12 0 0  0.135 0 0  0.15 0 0  0.165 0 0  0.18 0 0  0.195 0 0  0.21 0 0  0.225 0 0  0.24 0 0  0.255 0 0  0.27 0 0  0.285 0 0  0.3 0 0  0.315 0 0  0.33 0 0  0.345 0 0  0.36 0 0  0.375 0 0  0.39 0 0  0.405 0 0  0.42 0 0  0.435 0 0  0.45 0 0  0.465 0 0  0.48 0 0  0.495 0 0  0.51 0 0  0.525 0 0  0.54 0 0  0.555 0 0  0.57 0 0  0.585 0 0  0.6 0 0  0.615 0 0  0.63 0 0  0.645 0 0  0.66 0 0  0.675 0 0  0.6899999999999999 0 0  0.705 0 0  0.72 0 0  0.735 0 0  0.75 0 0  0.765 0 0  0.78 0 0  0.795 0 0  0.8100000000000001 0 0  0.825 0 0  0.84 0 0  0.855 0 0  0.87 0 0  0.885 0 0  0.9 0 0  0.915 0 0  0.93 0 0  0.945 0 0  0.96 0 0  0.975 0 0  0.99 0 0  1.005 0 0  1.02 0 0  1.035 0 0  1.05 0 0  1.065 0 0  1.08 0 0  1.095 0 0  1.11 0 0  1.125 0 0  1.14 0 0  1.155 0 0  1.17 0 0  1.185 0 0  1.2 0 0  1.215 0 0  1.23 0 0  1.245 0 0  1.26 0 0  1.275 0 0  1.29 0 0  1.305 0 0  1.32 0 0  1.335 0 0  1.35 0 0  1.365 0 0  1.38 0 0  1.395 0 0  1.41 0 0  1.425 0 0  1.44 0 0  1.455 0 0  1.47 0 0  1.485 0 0  1.5 0 0  0 0.01 0  0.015 0.01 0  0.03 0.01 0  0.045 0.01 0  0.06 0.01 0  0.075 0.01 0  0.09 0.01 0  0.105 0.01 0  0.12 0.01 0  0.135 0.01 0  0.15 0.01 0  0.165 0.01 0  0.18 0.01 0  0.195 0.01 0  0.21 0.01 0  0.225 0.01 0  0.24 0.01 0  0.255 0.01 0  0.27 0.01 0  0.285 0.01 0  0.3 0.01 0  0.315 0.01 0  0.33 0.01 0  0.345 0.01 0  0.36 0.01 0  0.375 0.01 0  0.39 0.01 0  0.405 0.01 0  0.42 0.01 0  0.435 0.01 0  0.45 0.01 0  0.465 0.01 0  0.48 0.01 0  0.495 0.01 0  0.51 0.01 0  0.525 0.01 0  0.54 0.01 0  0.555 0.01 0  0.57 0.01 0  0.585 0.01 0  0.6 0.01 0  0.615 0.01 0  0.63 0.01 0  0.645 0.01 0  0.66 0.01 0  0.675 0.01 0  0.6899999999999999 0.01 0  0.705 0.01 0  0.72 0.01 0  0.735 0.01 0  0.75 0.01 0  0.765 0.01 0  0.78 0.01 0  0.795 0.01 0  0.8100000000000001 0.01 0  0.825 0.01 0  0.84 0.01 0  0.855 0.01 0  0.87 0.01 0  0.885 0.01 0  0.9 0.01 0  0.915 0.01 0  0.93 0.01 0  0.945 0.01 0  0.96 0.01 0  0.975 0.01 0  0.99 0.01 0  1.005 0.01 0  1.02 0.01 0  1.035 0.01 0  1.05 0.01 0  1.065 0.01 0  1.08 0.01 0  1.095 0.01 0  1.11 0.01 0  1.125 0.01 0  1.14 0.01 0  1.155 0.01 0  1.17 0.01 0  1.185 0.01 0  1.2 0.01 0  1.215 0.01 0  1.23 0.01 0  1.245 0.01 0  1.26 0.01 0  1.275 0.01 0  1.29 0.01 0  1.305 0.01 0  1.32 0.01 0  1.335 0.01 0  1.35 0.01 0  1.365 0.01 0  1.38 0.01 0  1.395 0.01 0  1.41 0.01 0  1.425 0.01 0  1.44 0.01 0  1.455 0.01 0  1.47 0.01 0  1.485 0.01 0  1.5 0.01 0  0 0.02 0  0.015 0.02 0  0.03 0.02 0  0.045 0.02 0  0.06 0.02 0  0.075 0.02 0  0.09 0.02 0  0.105 0.02 0  0.12 0.02 0  0.135 0.02 0  0.15 0.02 0  0.165 0.02 0  0.18 0.02 0  0.195 0.02 0  0.21 0.02 0  0.225 0.02 0  0.24 0.02 0  0.255 0.02 0  0.27 0.02 0  0.285 0.02 0  0.3 0.02 0  0.315 0.02 0  0.33 0.02 0  0.345 0.02 0  0.36 0.02 0  0.375 0.02 0  0.39 0.02 0  0.405 0.02 0  0.42 0.02 0  0.435 0.02 0  0.45 0.02 0  0.465 0.02 0  0.48 0.02 0  0.495 0.02 0  0.51 0.02 0  0.525 0.02 0  0.54 0.02 0  0.555 0.02 0  0.57 0.02 0  0.585 0.02 0  0.6 0.02 0  0.615 0.02 0  0.63 0.02 0  0.645 0.02 0  0.66 0.02 0  0.675 0.02 0  0.6899999999999999 0.02 0  0.705 0.02 0  0.72 0.02 0  0.735 0.02 0  0.75 0.02 0  0.765 0.02 0  0.78 0.02 0  0.795 0.02 0  0.8100000000000001 0.02 0  0.825 0.02 0  0.84 0.02 0  0.855 0.02 0  0.87 0.02 0  0.885 0.02 0  0.9 0.02 0  0.915 0.02 0  0.93 0.02 0  0.945 0.02 0  0.96 0.02 0  0.975 0.02 0  0.99 0.02 0  1.005 0.02 0  1.02 0.02 0  1.035 0.02 0  1.05 0.02 0  1.065 0.02 0  1.08 0.02 0  1.095 0.02 0  1.11 0.02 0  1.125 0.02 0  1.14 0.02 0  1.155 0.02 0  1.17 0.02 0  1.185 0.02 0  1.2 0.02 0  1.215 0.02 0  1.23 0.02 0  1.245 0.02 0  1.26 0.02 0  1.275 0.02 0  1.29 0.02 0  1.305 0.02 0  1.32 0.02 0  1.335 0.02 0  1.35 0.02 0  1.365 0.02 0  1.38 0.02 0  1.395 0.02 0  1.41 0.02 0  1.425 0.02 0  1.44 0.02 0  1.455 0.02 0  1.47 0.02 0  1.485 0.02 0  1.5 0.02 0  0 0.03 0  0.015 0.03 0  0.03 0.03 0  0.045 0.03 0  0.06 0.03 0  0.075 0.03 0  0.09 0.03 0  0.105 0.03 0  0.12 0.03 0  0.135 0.03 0  0.15 0.03 0  0.165 0.03 0  0.18 0.03 0  0.195 0.03 0  0.21 0.03 0  0.225 0.03 0  0.24 0.03 0  0.255 0.03 0  0.27 0.03 0  0.285 0.03 0  0.3 0.03 0  0.315 0.03 0  0.33 0.03 0  0.345 0.03 0  0.36 0.03 0  0.375 0.03 0  0.39 0.03 0  0.405 0.03 0  0.42 0.03 0  0.435 0.03 0  0.45 0.03 0  0.465 0.03 0  0.48 0.03 0  0.495 0.03 0  0.51 0.03 0  0.525 0.03 0  0.54 0.03 0  0.555 0.03 0  0.57 0.03 0  0.585 0.03 0  0.6 0.03 0  0.615 0.03 0  0.63 0.03 0  0.645 0.03 0  0.66 0.03 0  0.675 0.03 0  0.6899999999999999 0.03 0  0.705 0.03 0  0.72 0.03 0  0.735 0.03 0  0.75 0.03 0  0.765 0.03 0  0.78 0.03 0  0.795 0.03 0  0.8100000000000001 0.03 0  0.825 0.03 0  0.84 0.03 0  0.855 0.03 0  0.87 0.03 0  0.885 0.03 0  0.9 0.03 0  0.915 0.03 0  0.93 0.03 0  0.945 0.03 0  0.96 0.03 0  0.975 0.03 0  0.99 0.03 0  1.005 0.03 0  1.02 0.03 0  1.035 0.03 0  1.05 0.03 0  1.065 0.03 0  1.08 0.03 0  1.095 0.03 0  1.11 0.03 0  1.125 0.03 0  1.14 0.03 0  1.155 0.03 0  1.17 0.03 0  1.185 0.03 0  1.2 0.03 0  1.215 0.03 0  1.23 0.03 0  1.245 0.03 0  1.26 0.03 0  1.275 0.03 0  1.29 0.03 0  1.305 0.03 0  1.32 0.03 0  1.335 0.03 0  1.35 0.03 0  1.365 0.03 0  1.38 0.03 0  1.395 0.03 0  1.41 0.03 0  1.425 0.03 0  1.44 0.03 0  1.455 0.03 0  1.47 0.03 0  1.485 0.03 0  1.5 0.03 0  0 0.04 0  0.015 0.04 0  0.03 0.04 0  0.045 0.04 0  0.06 0.04 0  0.075 0.04 0  0.09 0.04 0  0.105 0.04 0  0.12 0.04 0  0.135 0.04 0  0.15 0.04 0  0.165 0.04 0  0.18 0.04 0  0.195 0.04 0  0.21 0.04 0  0.225 0.04 0  0.24 0.04 0  0.255 0.04 0  0.27 0.04 0  0.285 0.04 0  0.3 0.04 0  0.315 0.04 0  0.33 0.04 0  0.345 0.04 0  0.36 0.04 0  0.375 0.04 0  0.39 0.04 0  0.405 0.04 0  0.42 0.04 0  0.435 0.04 0  0.45 0.04 0  0.465 0.04 0  0.48 0.04 0  0.495 0.04 0  0.51 0.04 0  0.525 0.04 0  0.54 0.04 0  0.555 0.04 0  0.57 0.04 0  0.585 0.04 0  0.6 0.04 0  0.615 0.04 0  0.63 0.04 0  0.645 0.04 0  0.66 0.04 0  0.675 0.04 0  0.6899999999999999 0.04 0  0.705 0.04 0  0.72 0.04 0  0.735 0.04 0  0.75 0.04 0  0.765 0.04 0  0.78 0.04 0  0.795 0.04 0  0.8100000000000001 0.04 0  0.825 0.04 0  0.84 0.04 0  0.855 0.04 0  0.87 0.04 0  0.885 0.04 0  0.9 0.04 0  0.915 0.04 0  0.93 0.04 0  0.945 0.04 0  0.96 0.04 0  0.975 0.04 0  0.99 0.04 0  1.005 0.04 0  1.02 0.04 0  1.035 0.04 0  1.05 0.04 0  1.065 0.04 0  1.08 0.04 0  1.095 0.04 0  1.11 0.04 0  1.125 0.04 0  1.14 0.04 0  1.155 0.04 0  1.17 0.04 0  1.185 0.04 0  1.2 0.04 0  1.215 0.04 0  1.23 0.04 0  1.245 0.04 0  1.26 0.04 0  1.275 0.04 0  1.29 0.04 0  1.305 0.04 0  1.32 0.04 0  1.335 0.04 0  1.35 0.04 0  1.365 0.04 0  1.38 0.04 0  1.395 0.04 0  1.41 0.04 0  1.425 0.04 0  1.44 0.04 0  1.455 0.04 0  1.47 0.04 0  1.485 0.04 0  1.5 0.04 0  0 0.05 0  0.015 0.05 0  0.03 0.05 0  0.045 0.05 0  0.06 0.05 0  0.075 0.05 0  0.09 0.05 0  0.105 0.05 0  0.12 0.05 0  0.135 0.05 0  0.15 0.05 0  0.165 0.05 0  0.18 0.05 0  0.195 0.05 0  0.21 0.05 0  0.225 0.05 0  0.24 0.05 0  0.255 0.05 0  0.27 0.05 0  0.285 0.05 0  0.3 0.05 0  0.315 0.05 0  0.33 0.05 0  0.345 0.05 0  0.36 0.05 0  0.375 0.05 0  0.39 0.05 0  0.405 0.05 0  0.42 0.05 0  0.435 0.05 0  0.45 0.05 0  0.465 0.05 0  0.48 0.05 0  0.495 0.05 0  0.51 0.05 0  0.525 0.05 0  0.54 0.05 0  0.555 0.05 0  0.57 0.05 0  0.585 0.05 0  0.6 0.05 0  0.615 0.05 0  0.63 0.05 0  0.645 0.05 0  0.66 0.05 0  0.675 0.05 0  0.6899999999999999 0.05 0  0.705 0.05 0  0.72 0.05 0  0.735 0.05 0  0.75 0.05 0  0.765 0.05 0  0.78 0.05 0  0.795 0.05 0  0.8100000000000001 0.05 0  0.825 0.05 0  0.84 0.05 0  0.855 0.05 0  0.87 0.05 0  0.885 0.05 0  0.9 0.05 0  0.915 0.05 0  0.93 0.05 0  0.945 0.05 0  0.96 0.05 0  0.975 0.05 0  0.99 0.05 0  1.005 0.05 0  1.02 0.05 0  1.035 0.05 0  1.05 0.05 0  1.065 0.05 0  1.08 0.05 0  1.095 0.05 0  1.11 0.05 0  1.125 0.05 0  1.14 0.05 0  1.155 0.05 0  1.17 0.05 0  1.185 0.05 0  1.2 0.05 0  1.215 0.05 0  1.23 0.05 0  1.245 0.05 0  1.26 0.05 0  1.275 0.05 0  1.29 0.05 0  1.305 0.05 0  1.32 0.05 0  1.335 0.05 0  1.35 0.05 0  1.365 0.05 0  1.38 0.05 0  1.395 0.05 0  1.41 0.05 0  1.425 0.05 0  1.44 0.05 0  1.455 0.05 0  1.47 0.05 0  1.485 0.05 0  1.5 0.05 0  0 0.06 0  0.015 0.06 0  0.03 0.06 0  0.045 0.06 0  0.06 0.06 0  0.075 0.06 0  0.09 0.06 0  0.105 0.06 0  0.12 0.06 0  0.135 0.06 0  0.15 0.06 0  0.165 0.06 0  0.18 0.06 0  0.195 0.06 0  0.21 0.06 0  0.225 0.06 0  0.24 0.06 0  0.255 0.06 0  0.27 0.06 0  0.285 0.06 0  0.3 0.06 0  0.315 0.06 0  0.33 0.06 0  0.345 0.06 0  0.36 0.06 0  0.375 0.06 0  0.39 0.06 0  0.405 0.06 0  0.42 0.06 0  0.435 0.06 0  0.45 0.06 0  0.465 0.06 0  0.48 0.06 0  0.495 0.06 0  0.51 0.06 0  0.525 0.06 0  0.54 0.06 0  0.555 0.06 0  0.57 0.06 0  0.585 0.06 0  0.6 0.06 0  0.615 0.06 0  0.63 0.06 0  0.645 0.06 0  0.66 0.06 0  0.675 0.06 0  0.6899999999999999 0.06 0  0.705 0.06 0  0.72 0.06 0  0.735 0.06 0  0.75 0.06 0  0.765 0.06 0  0.78 0.06 0  0.795 0.06 0  0.8100000000000001 0.06 0  0.825 0.06 0  0.84 0.06 0  0.855 0.06 0  0.87 0.06 0  0.885 0.06 0  0.9 0.06 0  0.915 0.06 0  0.93 0.06 0  0.945 0.06 0  0.96 0.06 0  0.975 0.06 0  0.99 0.06 0  1.005 0.06 0  1.02 0.06 0  1.035 0.06 0  1.05 0.06 0  1.065 0.06 0  1.08 0.06 0  1.095 0.06 0  1.11 0.06 0  1.125 0.06 0  1.14 0.06 0  1.155 0.06 0  1.17 0.06 0  1.185 0.06 0  1.2 0.06 0  1.215 0.06 0  1.23 0.06 0  1.245 0.06 0  1.26 0.06 0  1.275 0.06 0  1.29 0.06 0  1.305 0.06 0  1.32 0.06 0  1.335 0.06 0  1.35 0.06 0  1.365 0.06 0  1.38 0.06 0  1.395 0.06 0  1.41 0.06 0  1.425 0.06 0  1.44 0.06 0  1.455 0.06 0  1.47 0.06 0  1.485 0.06 0  1.5 0.06 0  0 0.07000000000000001 0  0.015 0.07000000000000001 0  0.03 0.07000000000000001 0  0.045 0.07000000000000001 0  0.06 0.07000000000000001 0  0.075 0.07000000000000001 0  0.09 0.07000000000000001 0  0.105 0.07000000000000001 0  0.12 0.07000000000000001 0  0.135 0.07000000000000001 0  0.15 0.07000000000000001 0  0.165 0.07000000000000001 0  0.18 0.07000000000000001 0  0.195 0.07000000000000001 0  0.21
[...]
<PointData  Scalars="ControlVisualisation"> 
<DataArray  type="Float64"  Name="ControlVisualisation"  format="ascii">1.9747576930694055e-01  9.3462147147704164e-02  9.3452451234959627e-02  9.3436378525551519e-02  9.3418247654431200e-02  9.3406175069860056e-02  9.3409815970794591e-02  9.3437588732588020e-02  9.3494765046104863e-02  9.3582776940321855e-02  9.3699432120185916e-02  9.3839590037708032e-02  9.3996110496990470e-02  9.4160980796956603e-02  9.4326429912475265e-02  9.4485797758328938e-02  9.4634025299355662e-02  9.4767773670701036e-02  9.4885273792098504e-02  9.4986031154058986e-02  9.5070488235149866e-02  9.5139709815930978e-02  9.5195122943324550e-02  9.5238320116140265e-02  9.5270921164114480e-02  9.5294483556392515e-02  9.5310449604210618e-02  9.5320120049719556e-02  9.5324645459639909e-02  9.5325028901604297e-02  9.5322135214127593e-02  9.5316703654465651e-02  9.5309361824047367e-02  9.5300639570551446e-02  9.5290982117749071e-02  9.5280762043185974e-02  9.5270289952839357e-02  9.5259823843577826e-02  9.5249577222690798e-02  9.5239726091878890e-02  9.5230414917007788e-02  9.5221761704573540e-02  9.5213862297319402e-02  9.5206793989258631e-02  9.5200618548224203e-02  9.5195384718568157e-02  9.5191130266685950e-02  9.5187883619505337e-02  9.5185665135745792e-02  9.5184488041803211e-02  9.5184359054618625e-02  9.5185278707302326e-02  9.5187241385139065e-02  9.5190235073905061e-02  9.5194240814547471e-02  9.5199231852074490e-02  9.5205172458446993e-02  9.5212016401884231e-02  9.5219705026521204e-02  9.5228164895196685e-02  9.5237304939452372e-02  9.5247013047027443e-02  9.5257152004924198e-02  9.5267554702965995e-02  9.5278018486952235e-02  9.5288298545128547e-02  9.5298100200232466e-02  9.5307069991674681e-02  9.5314785455591286e-02  9.5320743573010347e-02  9.5324347968670564e-02  9.5324895138520688e-02  9.5321560297703486e-02  9.5313383926200576e-02  9.5299260807385822e-02  9.5277934373325129e-02  9.5248000563863108e-02  9.5207927192224304e-02  9.5156096936489146e-02  9.5090884273854287e-02  9.5010778336011417e-02  9.4914563548039954e-02  9.4801565969826973e-02  9.4671962443323932e-02  9.4527128532744503e-02  9.4369967928821019e-02  9.4205124558538994e-02  9.4038945720830297e-02  9.3879072761474169e-02  9.3733620683531083e-02  9.3610065125740827e-02  9.3514091614959008e-02  9.3448642229339948e-02  9.3413242355722959e-02  9.3403682998468213e-02  9.3412407897813327e-02  9.3430001546015107e-02  9.3447713471724259e-02  9.3459759438089166e-02  9.3465193165739716e-02  3.2678710787956144e-01  9.3463269887876219e-02  5.8641975575760927e-03  5.8466022078997055e-03  5.8282138218493339e-03  5.8210607487805821e-03  5.8427825476951786e-03  5.9145729357867344e-03  6.0575109860187097e-03  6.2886870082305441e-03  6.6183862740099835e-03  7.0481312455667570e-03  7.5694925359360305e-03  8.1645238904926760e-03  8.8083128374890057e-03  9.4729611554775807e-03  1.0131647955477567e-02  1.0761670231360878e-02  1.1346029680024414e-02  1.1873711643696312e-02  1.2339076946849589e-02  1.2740809079843854e-02  1.3080753769166661e-02  1.3362855307775364e-02  1.3592284385110587e-02  1.3774779423028466e-02  1.3916183416474685e-02  1.4022141250560352e-02  1.4097919190479031e-02  1.4148311944079306e-02  1.4177609102164958e-02  1.4189599519444939e-02  1.4187598184129929e-02  1.4174484948489044e-02  1.4152748139919577e-02  1.4124528703149824e-02  1.4091662341054087e-02  1.4055718329188211e-02  1.4018034444230620e-02  1.3979747910663027e-02  1.3941822528824446e-02  1.3905072276493817e-02  1.3870181721796892e-02  1.3837723587947092e-02  1.3808173785763378e-02  1.3781924192908954e-02  1.3759293420489985e-02  1.3740535767090518e-02  1.3725848527065076e-02  1.3715377784147427e-02  1.3709222794859489e-02  1.3707439040500317e-02  1.3710040001473644e-02  1.3716997687952641e-02  1.3728241939967174e-02  1.3743658489828664e-02  1.3763085759879036e-02  1.3786310346677705e-02  1.3813061118977510e-02  1.3843001833114004e-02  1.3875722134624045e-02  1.3910726787607994e-02  1.3947422929670777e-02  1.3985105111136185e-02  1.4022937831760444e-02  1.4059935245274012e-02  1.4094937670224147e-02  1.4126584537334333e-02  1.4153283434329089e-02  1.4173175029793062e-02  1.4184093899443672e-02  1.4183525731099754e-02  1.4168562145555570e-02  1.4135855583853435e-02  1.4081578559709927e-02  1.4001394270374003e-02  1.3890449340676066e-02  1.3743404524863605e-02  1.3554525553749711e-02  1.3317863649526690e-02  1.3027562479334155e-02  1.2678333128518923e-02  1.2266136649971728e-02  1.1789097709189414e-02  1.1248632629726339e-02  1.0650699342593004e-02  1.0006958767641998e-02  9.3354885231210546e-03  8.6605608852829037e-03  8.0109934722024431e-03  7.4168443874775905e-03  6.9048234815832638e-03  6.4935449744706383e-03  6.1901530086695116e-03  5.9894631042231184e-03  5.8758044223688518e-03  5.8270092289007137e-03  5.8195159502318038e-03  5.8330072086843487e-03  5.8520494982122039e-03  5.8687473288089043e-03  9.3465311006067642e-02  9.3457058573370805e-02  5.8535145901836647e-03  5.8263975498497930e-03  5.8125216313029571e-03  5.8414288760442953e-03  5.9655756963298018e-03  6.2531614109334679e-03  6.7844718177594038e-03  7.6405535268236850e-03  8.8822192507055728e-03  1.0527405462094014e-02  1.2541012522138876e-02  1.4842342969988591e-02  1.7323791791041494e-02  1.9871490706040329e-02  2.2381679166480369e-02  2.4770535073982455e-02  2.6977886003903870e-02  2.8966464083578329e-02  3.0718581741625697e-02  3.2231770834723929e-02  3.3514416748760226e-02  3.4581949540327221e-02  3.5453811598823548e-02  3.6151210985417029e-02  3.6695562524386938e-02  3.7107479544872077e-02  3.7406178653978696e-02  3.7609177824006225e-02  3.7732192177141050e-02  3.7789155559739308e-02  3.7792316417905314e-02  3.7752372682810689e-02  3.7678622549664233e-02  3.7579116766207836e-02  3.7460804073266595e-02  3.7329665427900935e-02  3.7190835182095087e-02  3.7048708903254686e-02  3.6907038377605061e-02  3.6769014751838046e-02  3.6637340913516364e-02  3.6514294211153819e-02  3.6401780526853278e-02  3.6301380594519303e-02  3.6214389326747989e-02  3.6141848779458335e-02  3.6084575280021451e-02  3.6043181130467485e-02  3.6018091209215779e-02  3.6009554721311787e-02  3.6017652262717248e-02  3.6042298310820925e-02  3.6083239186410487e-02  3.6140046465843671e-02  3.6212105771924380e-02  3.6298600799440778e-02  3.6398492356704497e-02  3.6510492134794181e-02  3.6633030811954410e-02  3.6764220004349202e-02  3.6901807447963779e-02  3.7043124659386320e-02  3.7185026179544334e-02  3.7323819357796606e-02  3.7455183511034815e-02  3.7574077246935074e-02  3.7674632807552011e-02  3.7750036621120697e-02  3.7792395964347830e-02  3.7792592994886992e-02  3.7740129736600937e-02  3.7622971321461363e-02  3.7427400505000569e-02  3.7137904837299458e-02  3.6737129690732236e-02  3.6205946266461203e-02  3.5523704067585031e-02  3.4668761547970384e-02  3.3619414267399741e-02  3.2355361200805094e-02  3.0859855865180454e-02  2.9122661216310051e-02  2.7143838513815306e-02  2.4938216178652439e-02  2.2540072146181533e-02  2.0007111070796932e-02  1.7422268710241381e-02  1.4891368506608549e-02  1.2534476852555505e-02  1.0469486247781216e-02  8.7889175720794570e-03  7.5360445703966990e-03  6.6924053369926979e-03  6.1876376009866608e-03  5.9278961238519185e-03  5.8240616957122571e-03  5.8061775433567633e-03  5.8243468204331409e-03  5.8563658915037082e-03  9.3461819763480253e-02  9.3444551854976549e-02  5.8402893393532732e-03  5.8207372760392881e-03  5.8442699470124693e-03  5.9561059400954873e-03  6.2596918195321014e-03  6.9031242451137540e-03  8.0654297051939421e-03  9.9005993502121071e-03  1.2463292369255944e-02  1.5678908089408486e-02  1.9377881333792500e-02  2.3355038733635595e-02  2.7415415108103192e-02  3.1397044087019488e-02  3.5177566997579811e-02  3.8672730717656423e-02  4.1831493915690937e-02  4.4629925500986010e-02  4.7064938836199825e-02  4.9148460697878975e-02  5.0902394753042986e-02  5.2354547417823520e-02  5.3535528464151425e-02  5.4476533255438511e-02  5.5207859018111885e-02  5.5757992991125105e-02  5.6153121121985075e-02  5.6416929366648202e-02  5.6570596867218846e-02  5.6632906066353364e-02  5.6620416775575347e-02  5.6547668560818456e-02  5.6427388806344785e-02  5.6270693050161524e-02  5.6087270496049946e-02  5.5885551660344188e-02  5.5672857588539924e-02  5.5455531458523964e-02  5.5239054037546684e-02  5.5028144688559572e-02  5.4826849569017969e-02  5.4638618502927540e-02  5.4466371785117693e-02  5.4312557943358722e-02  5.4179203281660912e-02  5.4067953836789064e-02  5.3980110243646615e-02  5.3916655877008286e-02  5.3878278540722455e-02  5.3865385903544699e-02  5.3878114815695530e-02  5.3916334588009922e-02  5.3979644268812382e-02  5.4067363911295865e-02  5.4178519774473480e-02  5.4311823352379149e-02  5.4465644055057341e-02  5.4637975298094325e-02  5.4826393650509626e-02  5.5028010566452096e-02  5.5239416073981445e-02  5.5456613594081314e-02  5.5674944845256660e-02  5.5889003527730796e-02  5.6092536233838225e-02  5.6278328821984025e-02  5.6438076389436612e-02  5.6562235147468116e-02  5.6639855079492596e-02  5.6658393560285542e-02  5.6603512505631316e-02  5.6458865591987331e-02  5.6205888292448970e-02  5.5823612622763724e-02  5.5288541364923685e-02  5.4574633690854128e-02  5.3653475687403626e-02  5.2494734372129231e-02  5.1067019647746806e-02  4.9339299871560709e-02  4.7283024464648493e-02  4.4875089593507028e-02  4.2101729468988498e-02  3.8963324293408749e-02  3.5480005261420373e-02  3.1697848087862072e-02  2.7695388233919031e-02  2.3589959893310031e-02  1.9542217680131254e-02  1.5753836390693859e-02  1.2447690187051212e-02  9.8182143283514541e-03  7.9583357617798185e-03  6.8108936757659937e-03  6.2008703991574075e-03  5.9274525699737624e-03  5.8331877906481772e-03  5.8166263957833177e-03  5.8441901744010118e-03  9.3453567150487762e-02  9.3424746283786761e-02  5.8223693720660524e-03  5.8161017889899833e-03  5.8972631200364650e-03  6.1462657684345813e-03  6.7719216416774839e-03  8.0721950727695585e-03  1.0347272056021555e-02  1.3731652075373503e-02  1.8098049542427171e-02  2.3130723816013093e-02  2.8474382425995717e-02  3.3835116193205263e-02  3.9007295014111737e-02  4.3859950768902548e-02  4.8314851735932640e-02  5.2329694193710509e-02  5.5887664727380000e-02  5.8990904012221158e-02  6.1655719323833902e-02  6.3908528955055735e-02  6.5782292824019900e-02  6.7313484084367770e-02  6.8539683853749422e-02  6.9497812648827789e-02  7.0222941002979114e-02  7.0747579120699206e-02  7.1101332182537155e-02  7.1310814672385217e-02  7.1399734208475993e-02  7.1389075624350207e-02  7.1297335316254290e-02  7.1140772097115196e-02  7.0933653436964006e-02  7.0688485144991015e-02  7.0416218864082641e-02  7.0126435787671401e-02  6.9827507363249164e-02  6.9526735004373535e-02  6.9230471273002914e-02  6.8944225026081329e-02  6.8672752770390380e-02  6.8420138123474084e-02  6.8189860920534459e-02  6.7984857122396616e-02  6.7807570424670033e-02  6.7659996183989213e-02  6.7543718104947456e-02  6.7459937995908326e-02  6.7409498784180774e-02  6.7392900920048002e-02  6.7410312250265739e-02  6.7461571404940635e-02  6.7546184711214208e-02  6.7663316646793148e-02  6.7811773792137237e-02  6.7989982227364354e-02  6.8195958265742054e-02  6.8427272330771449e-02  6.8681005695030578e-02  6.8953699638141991e-02  6.9241296389789153e-02  6.9539070965270650e-02  6.9841552683433228e-02  7.0142434796183886e-02  7.0434470245796466e-02  7.0709351221053568e-02  7.0957569886581917e-02  7.1168257691374498e-02  7.1329001103616188e-02  7.1425632872538947e-02  7.1442000363829389e-02  7.1359716667600243e-02  7.1157906672128929e-02  7.0812969773624196e-02  7.0298393849575730e-02  6.9584671679281021e-02  6.8639390360941549e-02  6.7427584089765957e-02  6.5912455970958572e-02  6.4056577189219796e-02  6.1823650463523894e-02  5.9180868370807778e-02  5.6101806020350684e-02  5.2569696843075241e-02  4.8580959131435342e-02  4.4149187008879695e-02  3.9310767956682396e-02  3.4134841455204859e-02  2.8741312119711555e-02  2.3327481510582043e-02  1.8190707010326691e-02  1.3710512978878254e-02  1.0243458029597386e-02  7.9466473119251604e-03  6.6762303056126186e-03  6.0949302662878149e-03  5.8768736379737722e-03  5.8091189187575026e-03  5.8276450447412986e-03  9.3438590281158390e-02  9.3397602555794587e-02  5.8000481838491151e-03  5.8166348869028821e-03  6.0006400534872197e-03  6.5248824443644351e-03  7.8096262935182063e-03  1.0371730753205950e-02  1.4535541702634193e-02  2.0172778656796224e-02  2.6770320630581854e-02  3.3724618196654926e-02  4.0569387554680328e-02  4.7031429485570382e-02  5.2983389566692671e-02  5.8378843278891361e-02  6.3208137567891315e-02  6.7477636308371086e-02  7.1202918019130285e-02  7.4407349619292504e-02  7.7121497440710368e-02  7.9381899370908005e-02  8.1229197267292219e-02  8.2706057490517029e-02  8.3855266535958456e-02  8.4718219219692942e-02  8.5333863899860821e-02  8.5738071637227908e-02  8.5963349553608695e-02  8.6038806600717138e-02  8.5990287214231007e-02  8.5840604029301798e-02  8.5609818414167260e-02  8.5315533559586959e-02  8.4973177887435664e-02  8.4596266308382406e-02  8.4196633680807847e-02  8.3784639287526386e-02  8.3369343739654794e-02  8.2958661081865823e-02  8.2559489336849853e-02  8.2177822676487683e-02  8.1818848082908346e-02  8.1487028874857370e-02  8.1186177011000130e-02  8.0919515587077856e-02  8.0689732600901454e-02  8.0499026696743289e-02  8.0349145393674284e-02  8.0241416100379520e-02  8.0176770112940943e-02  8.0155759700031318e-02  8.0178568335549802e-02  8.0245014107106716e-02  8.0354546311635244e-02  8.0506235245306534e-02  8.0698755161631192e-02  8.0930360357040543e-02  8.1198854291250150e-02  8.1501551546815793e-02  8.1835232335418062e-02  8.2196089046861473e-02  8.2579664104011727e-02  8.2980778050025947e-02  8.3393446396412482e-02  8.3810783286877966e-02  8.4224889508029532e-02  8.4626721936844146e-02  8.5005941097774457e-02  8.5350733535943440e-02  8.5647606147750965e-02  8.5881151053125715e-02  8.6033782324930141e-02  8.6085450534047939e-02  8.6013348219026092e-02  8.5791629610476899e-02  8.5391181543674505e-02  8.4779499225880989e-02  8.3920738813446222e-02  8.2776034989433450e-02  8.1304178725375806e-02  7.9462736353834176e-02  7.7209638825386673e-02  7.4505160401390907e-02  7.1314030164805586e-02  6.7607211480265134e-02  6.3362787518247116e-02  5.8565758292339981e-02  5.3208021259868746e-02  4.7293059995048646e-02  4.0854572350483953e-02  3.4000627780629039e-02  2.6984839439811545e-02  2.0270058355919857e-02  1.4493171119714949e-02  1.0233259174478484e-02  7.6628415480874922e-03  6.4306669527284636e-03  5.9601635368287855e-03  5.8038590700334840e-03  5.8066863901753470e-03  9.3416274132656546e-02  9.3364165694698395e-02  5.7744953981560890e-03  5.8340472271932228e-03  6.2257228380720262e-03  7.3485490233365890e-03  9.9904967716912384e-03  1.4834960469365253e-02  2.1901872687463297e-02  3.0479217158127240e-02  3.9588861204833251e-02  4.8450999632758451e-02  5.6640340518567624e-02  6.4011363595195186e-02  7.0565053446618273e-02  7.6352046618432812e-02  8.1427275865681742e-02  8.5838101926987792e-02  8.9626400357809610e-02  9.2833252203932765e-02  9.5501950102770114e-02  9.7678739120583141e-02  9.9412011681515727e-02  1.0075081689253340e-01  1.0174330002776255e-01  1.0243540496767813e-01  1.0286996254732667e-01  1.0308616258042956e-01  1.0311934674721690e-01  1.0300103997633758e-01  1.0275914086150816e-01  1.0241820480910521e-01  1.0199976972928233e-01  1.0152268936220618e-01  1.0100345208193179e-01  1.0045647277337787e-01  9.9894352332747127e-02  9.9328103905903284e-02  9.8767347733712291e-02  9.8220477863959252e-02  9.7694804504488766e-02  9.7196675717017553e-02  9.6731581760282251e-02  9.6304244856737414e-02  9.5918696607679405e-02  9.5578344699425485e-02  9.5286030189825469e-02  9.5044076147206114e-02  9.4854328277812275e-02  9.4718187856036334e-02  9.4636637179921893e-02  9.4610257668345604e-02  9.4639240654422016e-02  9.4723390902622329e-02  9.4862122863082446e-02  9.5054449664383325e-02  9.5298964818144385e-02  9.5593816605666279e-02  9.5936675030635798e-02  9.6324691130128690e-02  9.6754448305551799e-02  9.7221905092980579e-02  9.7722328513742740e-02  9.8250216765479029e-02  9.8799209532401067e-02  9.9361983660403760e-02  9.9930131345029566e-02  1.0049401745691411e-01  1.0104261218551873e-01  1.0156329516347380e-01  1.0204162770904862e-01  1.0246109131076162e-01  1.0280279332161657e-01  1.0304514556266918e-01  1.0316352879404728e-01  1.0312996616760933e-01  1.0291284212014690e-01  1.0247671928023996e-01  1.0178232307401489e-01  1.0078677815605463e-01  9.9444185054232387e-02  9.7706607005931853e-02  9.5525476588930208e-02  9.2853304012287308e-02  8.9645349852130032e-02  8.5860617960931196e-02  8.1461224935070520e-02  7.6409232526867529e-02  7.0661142119909523e-02  6.4163716021997552e-02  5.6861817865543368e-02  4.8738019862731810e-02  3.9905355179140886e-02  3.0747832957889170e-02  2.2026875647218020e-02  1.4772564705650283e-02  9.8126687748797247e-03  7.1880822681678978e-03  6.1451364045066025e-03  5.8093532573034873e-03  5.7818887163738793e-03  9.3386958895572941e-02  9.3326923903374201e-02  5.7492095591356509e-03  5.8961901170655976e-03  6.7378268651063708e-03  9.1672518221460712e-03  1.4431321490364524e-02  2.2968461256842296e-02  3.3950113661091290e-02  4.5904642045314012e-02  5.7549647505664950e-02  6.8157963151685902e-02  7.7492161028891060e-02  8.5588983505905325e-02  9.2581236250801877e-02  9.8605285966091819e-02  1.0377186059633069e-01  1.0816685124232711e-01  1.1186045590363240e-01  1.1491528609912853e-01  1.1739109792087124e-01  1.1934662223552087e-01  1.2083961749191785e-01  1.2192610771598747e-01  1.2265942887050604e-01  1.2308941314697459e-01  1.2326184211174969e-01  1.2321818414192218e-01  1.2299557482435262e-01  1.2262697832422836e-01  1.2214146726784253e-01  1.2156456775514463e-01  1.2091862852430947e-01  1.2022318560064441e-01  1.1949530438368776e-01  1.1874988931815400e-01  1.1799995738494147e-01  1.1725687554424356e-01  1.1653056468161058e-01  1.1582967383331305e-01  1.1516172877800919e-01  1.1453325899819349e-01  1.1394990651131987e-01  1.1341651951270428e-01  1.1293723317347494e-01  1.1251553931772204e-01  1.1215434630695266e-01  1.1185602995640681e-01  1.1162247609454419e-01  1.1145511508971158e-01  1.1135494855806025e-01  1.1132256833835742e-01  1.1135816778820957e-01  1.1146154541201383e-01  1.1163210084192865e-01  1.1186882314819979e-01  1.1217027150848080e-01  1.1253454817478110e-01  1.1295926366252207e-01  1.1344149396731060e-01  1.1397772946943176e-01  1.1456381495149194e-01  1.1519487984086942e-01  1.1586525739632376e-01  1.1656839104039049e-01  1.1729672545259695e-01  1.1804157943948929e-01  1.1879299696907471e-01  1.1953957228261429e-01  1.2026824486458304e-01  1.2096406039042346e-01  1.2160989500659231e-01  1.2218614274108684e-01  1.2267036991695468e-01  1.2303694661687446e-01  1.2325667380695655e-01  1.2329643572266499e-01  1.2311892011457301e-01  1.2268246224888908e-01  1.2194107906483530e-01  1.2084476145152713e-01  1.1934007505117063e-01  1.1737106783244421e-01  1.1488037383548941e-01  1.1181021191786994e-01  1.0810269079589027e-01  1.0369848176156241e-01  9.8532696290988903e-02  9.2527253559731043e-02  8.5581351594753163e-02  7.7567867731486217e-02  6.8354869330139068e-02  5.7884169648965540e-02  4.6335103299301600e-02  3.4348508183663966e-02  2.3160129731047842e-02  1.4343388827558538e-02  8.9456924483287993e-03  6.5848731289772037e-03  5.8466279482974979e-03  5.7554877916068618e-03  9.3352145906949513e-02  9.3290302012081189e-02  5.7323269482674761e-03  6.0721115591763665e-03  7.9259336480737557e-03  1.3082388123422965e-02  2.2884240437276434e-02  3.6586805883931720e-02  5.2091670102137944e-02  6.7395387756398070e-02  8.1285656593844041e-02  9.3315194060897416e-02  1.0350368247068301e-01  1.1206291510118148e-01  1.1923649650136739e-01  1.2523576801775674e-01  1.3022799638551233e-01  1.3434427139588481e-01  1.3769083598220647e-01  1.4035806571332823e-01  1.4242614621820637e-01  1.439681313