<?xml version="1.0"?>
<VTKFile type="UnstructuredGrid"  version="0.1"  >
<UnstructuredGrid>
<Piece  NumberOfPoints="10201" NumberOfCells="20000">
<Points>
<DataArray  type="Float64"  NumberOfComponents="3"  format="ascii">0 0 0  0.015 0 0  0.03 0 0  0.045 0 0  0.06 0 0  0.075 0 0  0.09 0 0  0.105 0 0  0.12 0 0  0.135 0 0  0.15 0 0  0.165 0 0  0.18 0 0  0.195 0 0  0.21 0 0  0.225 0 0  0.24 0 0  0.255 0 0  0.27 0 0  0.285 0 0  0.3 0 0  0.315 0 0  0.33 0 0  0.345 0 0  0.36 0 0  0.375 0 0  0.39 0 0  0.405 0 0  0.42 0 0  0.435 0 0  0.45 0 0  0.465 0 0  0.48 0 0  0.495 0 0  0.51 0 0  0.525 0 0  0.54 0 0  0.555 0 0  0.57 0 0  0.585 0 0  0.6 0 0  0.615 0 0  0.63 0 0  0.645 0 0  0.66 0 0  0.675 0 0  0.6899999999999999 0 0  0.705 0 0  0.72 0 0  0.735 0 0  0.75 0 0  0.765 0 0  0.78 0 0  0.795 0 0  0.8100000000000001 0 0  0.825 0 0  0.84 0 0  0.855 0 0  0.87 0 0  0.885 0 0  0.9 0 0  0.915 0 0  0.93 0 0  0.945 0 0  0.96 0 0  0.975 0 0  0.99 0 0  1.005 0 0  1.02 0 0  1.035 0 0  1.05 0 0  1.065 0 0  1.08 0 0  1.095 0 0  1.11 0 0  1.125 0 0  1.14 0 0  1.155 0 0  1.17 0 0  1.185 0 0  1.2 0 0  1.215 0 0  1.23 0 0  1.245 0 0  1.26 0 0  1.275 0 0  1.29 0 0  1.305 0 0  1.32 0 0  1.335 0 0  1.35 0 0  1.365 0 0  1.38 0 0  1.395 0 0  1.41 0 0  1.425 0 0  1.44 0 0  1.455 0 0  1.47 0 0  1.485 0 0  1.5 0 0  0 0.01 0  0.015 0.01 0  0.03 0.01 0  0.045 0.01 0  0.06 0.01 0  0.075 0.01 0  0.09 0.01 0  0.105 0.01 0  0.12 0.01 0  0.135 0.01 0  0.15 0.01 0  0.165 0.01 0  0.18 0.01 0  0.195 0.01 0  0.21 0.01 0  0.225 0.01 0  0.24 0.01 0  0.255 0.01 0  0.27 0.01 0  0.285 0.01 0  0.3 0.01 0  0.315 0.01 0  0.33 0.01 0  0.345 0.01 0  0.36 0.01 0  0.375 0.01 0  0.39 0.01 0  0.405 0.01 0  0.42 0.01 0  0.435 0.01 0  0.45 0.01 0  0.465 0.01 0  0.48 0.01 0  0.495 0.01 0  0.51 0.01 0  0.525 0.01 0  0.54 0.01 0  0.555 0.01 0  0.57 0.01 0  0.585 0.01 0  0.6 0.01 0  0.615 0.01 0  0.63 0.01 0  0.645 0.01 0  0.66 0.01 0  0.675 0.01 0  0.6899999999999999 0.01 0  0.705 0.01 0  0.72 0.01 0  0.735 0.01 0  0.75 0.01 0  0.765 0.01 0  0.78 0.01 0  0.795 0.01 0  0.8100000000000001 0.01 0  0.825 0.01 0  0.84 0.01 0  0.855 0.01 0  0.87 0.01 0  0.885 0.01 0  0.9 0.01 0  0.915 0.01 0  0.93 0.01 0  0.945 0.01 0  0.96 0.01 0  0.975 0.01 0  0.99 0.01 0  1.005 0.01 0  1.02 0.01 0  1.035 0.01 0  1.05 0.01 0  1.065 0.01 0  1.08 0.01 0  1.095 0.01 0  1.11 0.01 0  1.125 0.01 0  1.14 0.01 0  1.155 0.01 0  1.17 0.01 0  1.185 0.01 0  1.2 0.01 0  1.215 0.01 0  1.23 0.01 0  1.245 0.01 0  1.26 0.01 0  1.275 0.01 0  1.29 0.01 0  1.305 0.01 0  1.32 0.01 0  1.335 0.01 0  1.35 0.01 0  1.365 0.01 0  1.38 0.01 0  1.395 0.01 0  1.41 0.01 0  1.425 0.01 0  1.44 0.01 0  1.455 0.01 0  1.47 0.01 0  1.485 0.01 0  1.5 0.01 0  0 0.02 0  0.015 0.02 0  0.03 0.02 0  0.045 0.02 0  0.06 0.02 0  0.075 0.02 0  0.09 0.02 0  0.105 0.02 0  0.12 0.02 0  0.135 0.02 0  0.15 0.02 0  0.165 0.02 0  0.18 0.02 0  0.195 0.02 0  0.21 0.02 0  0.225 0.02 0  0.24 0.02 0  0.255 0.02 0  0.27 0.02 0  0.285 0.02 0  0.3 0.02 0  0.315 0.02 0  0.33 0.02 0  0.345 0.02 0  0.36 0.02 0  0.375 0.02 0  0.39 0.02 0  0.405 0.02 0  0.42 0.02 0  0.435 0.02 0  0.45 0.02 0  0.465 0.02 0  0.48 0.02 0  0.495 0.02 0  0.51 0.02 0  0.525 0.02 0  0.54 0.02 0  0.555 0.02 0  0.57 0.02 0  0.585 0.02 0  0.6 0.02 0  0.615 0.02 0  0.63 0.02 0  0.645 0.02 0  0.66 0.02 0  0.675 0.02 0  0.6899999999999999 0.02 0  0.705 0.02 0  0.72 0.02 0  0.735 0.02 0  0.75 0.02 0  0.765 0.02 0  0.78 0.02 0  0.795 0.02 0  0.8100000000000001 0.02 0  0.825 0.02 0  0.84 0.02 0  0.855 0.02 0  0.87 0.02 0  0.885 0.02 0  0.9 0.02 0  0.915 0.02 0  0.93 0.02 0  0.945 0.02 0  0.96 0.02 0  0.975 0.02 0  0.99 0.02 0  1.005 0.02 0  1.02 0.02 0  1.035 0.02 0  1.05 0.02 0  1.065 0.02 0  1.08 0.02 0  1.095 0.02 0  1.11 0.02 0  1.125 0.02 0  1.14 0.02 0  1.155 0.02 0  1.17 0.02 0  1.185 0.02 0  1.2 0.02 0  1.215 0.02 0  1.23 0.02 0  1.245 0.02 0  1.26 0.02 0  1.275 0.02 0  1.29 0.02 0  1.305 0.02 0  1.32 0.02 0  1.335 0.02 0  1.35 0.02 0  1.365 0.02 0  1.38 0.02 0  1.395 0.02 0  1.41 0.02 0  1.425 0.02 0  1.44 0.02 0  1.455 0.02 0  1.47 0.02 0  1.485 0.02 0  1.5 0.02 0  0 0.03 0  0.015 0.03 0  0.03 0.03 0  0.045 0.03 0  0.06 0.03 0  0.075 0.03 0  0.09 0.03 0  0.105 0.03 0  0.12 0.03 0  0.135 0.03 0  0.15 0.03 0  0.165 0.03 0  0.18 0.03 0  0.195 0.03 0  0.21 0.03 0  0.225 0.03 0  0.24 0.03 0  0.255 0.03 0  0.27 0.03 0  0.285 0.03 0  0.3 0.03 0  0.315 0.03 0  0.33 0.03 0  0.345 0.03 0  0.36 0.03 0  0.375 0.03 0  0.39 0.03 0  0.405 0.03 0  0.42 0.03 0  0.435 0.03 0  0.45 0.03 0  0.465 0.03 0  0.48 0.03 0  0.495 0.03 0  0.51 0.03 0  0.525 0.03 0  0.54 0.03 0  0.555 0.03 0  0.57 0.03 0  0.585 0.03 0  0.6 0.03 0  0.615 0.03 0  0.63 0.03 0  0.645 0.03 0  0.66 0.03 0  0.675 0.03 0  0.6899999999999999 0.03 0  0.705 0.03 0  0.72 0.03 0  0.735 0.03 0  0.75 0.03 0  0.765 0.03 0  0.78 0.03 0  0.795 0.03 0  0.8100000000000001 0.03 0  0.825 0.03 0  0.84 0.03 0  0.855 0.03 0  0.87 0.03 0  0.885 0.03 0  0.9 0.03 0  0.915 0.03 0  0.93 0.03 0  0.945 0.03 0  0.96 0.03 0  0.975 0.03 0  0.99 0.03 0  1.005 0.03 0  1.02 0.03 0  1.035 0.03 0  1.05 0.03 0  1.065 0.03 0  1.08 0.03 0  1.095 0.03 0  1.11 0.03 0  1.125 0.03 0  1.14 0.03 0  1.155 0.03 0  1.17 0.03 0  1.185 0.03 0  1.2 0.03 0  1.215 0.03 0  1.23 0.03 0  1.245 0.03 0  1.26 0.03 0  1.275 0.03 0  1.29 0.03 0  1.305 0.03 0  1.32 0.03 0  1.335 0.03 0  1.35 0.03 0  1.365 0.03 0  1.38 0.03 0  1.395 0.03 0  1.41 0.03 0  1.425 0.03 0  1.44 0.03 0  1.455 0.03 0  1.47 0.03 0  1.485 0.03 0  1.5 0.03 0  0 0.04 0  0.015 0.04 0  0.03 0.04 0  0.045 0.04 0  0.06 0.04 0  0.075 0.04 0  0.09 0.04 0  0.105 0.04 0  0.12 0.04 0  0.135 0.04 0  0.15 0.04 0  0.165 0.04 0  0.18 0.04 0  0.195 0.04 0  0.21 0.04 0  0.225 0.04 0  0.24 0.04 0  0.255 0.04 0  0.27 0.04 0  0.285 0.04 0  0.3 0.04 0  0.315 0.04 0  0.33 0.04 0  0.345 0.04 0  0.36 0.04 0  0.375 0.04 0  0.39 0.04 0  0.405 0.04 0  0.42 0.04 0  0.435 0.04 0  0.45 0.04 0  0.465 0.04 0  0.48 0.04 0  0.495 0.04 0  0.51 0.04 0  0.525 0.04 0  0.54 0.04 0  0.555 0.04 0  0.57 0.04 0  0.585 0.04 0  0.6 0.04 0  0.615 0.04 0  0.63 0.04 0  0.645 0.04 0  0.66 0.04 0  0.675 0.04 0  0.6899999999999999 0.04 0  0.705 0.04 0  0.72 0.04 0  0.735 0.04 0  0.75 0.04 0  0.765 0.04 0  0.78 0.04 0  0.795 0.04 0  0.8100000000000001 0.04 0  0.825 0.04 0  0.84 0.04 0  0.855 0.04 0  0.87 0.04 0  0.885 0.04 0  0.9 0.04 0  0.915 0.04 0  0.93 0.04 0  0.945 0.04 0  0.96 0.04 0  0.975 0.04 0  0.99 0.04 0  1.005 0.04 0  1.02 0.04 0  1.035 0.04 0  1.05 0.04 0  1.065 0.04 0  1.08 0.04 0  1.095 0.04 0  1.11 0.04 0  1.125 0.04 0  1.14 0.04 0  1.155 0.04 0  1.17 0.04 0  1.185 0.04 0  1.2 0.04 0  1.215 0.04 0  1.23 0.04 0  1.245 0.04 0  1.26 0.04 0  1.275 0.04 0  1.29 0.04 0  1.305 0.04 0  1.32 0.04 0  1.335 0.04 0  1.35 0.04 0  1.365 0.04 0  1.38 0.04 0  1.395 0.04 0  1.41 0.04 0  1.425 0.04 0  1.44 0.04 0  1.455 0.04 0  1.47 0.04 0  1.485 0.04 0  1.5 0.04 0  0 0.05 0  0.015 0.05 0  0.03 0.05 0  0.045 0.05 0  0.06 0.05 0  0.075 0.05 0  0.09 0.05 0  0.105 0.05 0  0.12 0.05 0  0.135 0.05 0  0.15 0.05 0  0.165 0.05 0  0.18 0.05 0  0.195 0.05 0  0.21 0.05 0  0.225 0.05 0  0.24 0.05 0  0.255 0.05 0  0.27 0.05 0  0.285 0.05 0  0.3 0.05 0  0.315 0.05 0  0.33 0.05 0  0.345 0.05 0  0.36 0.05 0  0.375 0.05 0  0.39 0.05 0  0.405 0.05 0  0.42 0.05 0  0.435 0.05 0  0.45 0.05 0  0.465 0.05 0  0.48 0.05 0  0.495 0.05 0  0.51 0.05 0  0.525 0.05 0  0.54 0.05 0  0.555 0.05 0  0.57 0.05 0  0.585 0.05 0  0.6 0.05 0  0.615 0.05 0  0.63 0.05 0  0.645 0.05 0  0.66 0.05 0  0.675 0.05 0  0.6899999999999999 0.05 0  0.705 0.05 0  0.72 0.05 0  0.735 0.05 0  0.75 0.05 0  0.765 0.05 0  0.78 0.05 0  0.795 0.05 0  0.8100000000000001 0.05 0  0.825 0.05 0  0.84 0.05 0  0.855 0.05 0  0.87 0.05 0  0.885 0.05 0  0.9 0.05 0  0.915 0.05 0  0.93 0.05 0  0.945 0.05 0  0.96 0.05 0  0.975 0.05 0  0.99 0.05 0  1.005 0.05 0  1.02 0.05 0  1.035 0.05 0  1.05 0.05 0  1.065 0.05 0  1.08 0.05 0  1.095 0.05 0  1.11 0.05 0  1.125 0.05 0  1.14 0.05 0  1.155 0.05 0  1.17 0.05 0  1.185 0.05 0  1.2 0.05 0  1.215 0.05 0  1.23 0.05 0  1.245 0.05 0  1.26 0.05 0  1.275 0.05 0  1.29 0.05 0  1.305 0.05 0  1.32 0.05 0  1.335 0.05 0  1.35 0.05 0  1.365 0.05 0  1.38 0.05 0  1.395 0.05 0  1.41 0.05 0  1.425 0.05 0  1.44 0.05 0  1.455 0.05 0  1.47 0.05 0  1.485 0.05 0  1.5 0.05 0  0 0.06 0  0.015 0.06 0  0.03 0.06 0  0.045 0.06 0  0.06 0.06 0  0.075 0.06 0  0.09 0.06 0  0.105 0.06 0  0.12 0.06 0  0.135 0.06 0  0.15 0.06 0  0.165 0.06 0  0.18 0.06 0  0.195 0.06 0  0.21 0.06 0  0.225 0.06 0  0.24 0.06 0  0.255 0.06 0  0.27 0.06 0  0.285 0.06 0  0.3 0.06 0  0.315 0.06 0  0.33 0.06 0  0.345 0.06 0  0.36 0.06 0  0.375 0.06 0  0.39 0.06 0  0.405 0.06 0  0.42 0.06 0  0.435 0.06 0  0.45 0.06 0  0.465 0.06 0  0.48 0.06 0  0.495 0.06 0  0.51 0.06 0  0.525 0.06 0  0.54 0.06 0  0.555 0.06 0  0.57 0.06 0  0.585 0.06 0  0.6 0.06 0  0.615 0.06 0  0.63 0.06 0  0.645 0.06 0  0.66 0.06 0  0.675 0.06 0  0.6899999999999999 0.06 0  0.705 0.06 0  0.72 0.06 0  0.735 0.06 0  0.75 0.06 0  0.765 0.06 0  0.78 0.06 0  0.795 0.06 0  0.8100000000000001 0.06 0  0.825 0.06 0  0.84 0.06 0  0.855 0.06 0  0.87 0.06 0  0.885 0.06 0  0.9 0.06 0  0.915 0.06 0  0.93 0.06 0  0.945 0.06 0  0.96 0.06 0  0.975 0.06 0  0.99 0.06 0  1.005 0.06 0  1.02 0.06 0  1.035 0.06 0  1.05 0.06 0  1.065 0.06 0  1.08 0.06 0  1.095 0.06 0  1.11 0.06 0  1.125 0.06 0  1.14 0.06 0  1.155 0.06 0  1.17 0.06 0  1.185 0.06 0  1.2 0.06 0  1.215 0.06 0  1.23 0.06 0  1.245 0.06 0  1.26 0.06 0  1.275 0.06 0  1.29 0.06 0  1.305 0.06 0  1.32 0.06 0  1.335 0.06 0  1.35 0.06 0  1.365 0.06 0  1.38 0.06 0  1.395 0.06 0  1.41 0.06 0  1.425 0.06 0  1.44 0.06 0  1.455 0.06 0  1.47 0.06 0  1.485 0.06 0  1.5 0.06 0  0 0.07000000000000001 0  0.015 0.07000000000000001 0  0.03 0.07000000000000001 0  0.045 0.07000000000000001 0  0.06 0.07000000000000001 0  0.075 0.07000000000000001 0  0.09 0.07000000000000001 0  0.105 0.07000000000000001 0  0.12 0.07000000000000001 0  0.135 0.07000000000000001 0  0.15 0.07000000000000001 0  0.165 0.07000000000000001 0  0.18 0.07000000000000001 0  0.195 0.07000000000000001 0  0.21
[...]
<PointData  Scalars="ControlVisualisation"> 
<DataArray  type="Float64"  Name="ControlVisualisation"  format="ascii">2.8413758111758836e-05  9.6065825093063287e-03  9.6049764561082634e-03  9.6028036606534278e-03  9.6012283187682165e-03  9.6015612575935314e-03  9.6049801816805863e-03  9.6121220218843631e-03  9.6228047774042924e-03  9.6361037674397368e-03  9.6507281199009406e-03  9.6654411107709934e-03  9.6792966156653421e-03  9.6916534354404352e-03  9.7020802044033155e-03  9.7102731302868631e-03  9.7160325089968788e-03  9.7192785657972680e-03  9.7200701698142225e-03  9.7186041641856430e-03  9.7151920129952343e-03  9.7102215996967764e-03  9.7041147384958823e-03  9.6972888473601804e-03  9.6901275558034447e-03  9.6829616777207098e-03  9.6760597154353992e-03  9.6696259202002990e-03  9.6638036436697342e-03  9.6586819266799434e-03  9.6543037004561336e-03  9.6506744372615999e-03  9.6477704882860157e-03  9.6455466571869694e-03  9.6439427805783684e-03  9.6428892382168854e-03  9.6423114152299691e-03  9.6421331996392121e-03  9.6422796323253554e-03  9.6426788416792003e-03  9.6432633961636705e-03  9.6439712001923222e-03  9.6447460452377398e-03  9.6455379110754400e-03  9.6463030949317033e-03  9.6470042296310926e-03  9.6476102369626657e-03  9.6480962496312342e-03  9.6484435251304179e-03  9.6486393669285020e-03  9.6486770623557261e-03  9.6485558426574122e-03  9.6482808672411699e-03  9.6478632322442581e-03  9.6473200007110224e-03  9.6466742496401636e-03  9.6459551252064610e-03  9.6451978932321283e-03  9.6444439649983130e-03  9.6437408708380315e-03  9.6431421429232986e-03  9.6427070571394255e-03  9.6425001695967308e-03  9.6425905687493527e-03  9.6430507501745477e-03  9.6439550065514981e-03  9.6453772165297005e-03  9.6473879101808130e-03  9.6500504911301160e-03  9.6534165092112059e-03  9.6575199082786986e-03  9.6623702314048293e-03  9.6679448650464350e-03  9.6741805647301490e-03  9.6809647511715141e-03  9.6881274159397734e-03  9.6954349262729847e-03  9.7025875211789944e-03  9.7092227128316513e-03  9.7149269289788509e-03  9.7192572374227917e-03  9.7217735801595831e-03  9.7220794846197209e-03  9.7198660207693105e-03  9.7149509148439506e-03  9.7073044060695460e-03  9.6970588478552458e-03  9.6845120323211728e-03  9.6701484488330852e-03  9.6546972477305759e-03  9.6391975772347829e-03  9.6249697187023378e-03  9.6133812647735198e-03  9.6054291769289563e-03  9.6013546962040730e-03  9.6005590271042440e-03  9.6018888982635567e-03  9.6040761588138193e-03  9.6060127871485518e-03  9.6069161503032283e-03  5.3314203804506216e-02  9.6067770601709138e-03  6.6699136275066226e-03  6.6695805103928404e-03  6.6678496430124697e-03  6.6669202258471394e-03  6.6691247487048778e-03  6.6758873447445299e-03  6.6867011142072927e-03  6.6989028010707510e-03  6.7086446142146060e-03  6.7126742631049216e-03  6.7098166507901513e-03  6.7011913287846579e-03  6.6892376964983527e-03  6.6764168582067220e-03  6.6643608004267954e-03  6.6536703619763903e-03  6.6441503002064792e-03  6.6351875006713662e-03  6.6260796415903919e-03  6.6162437466800068e-03  6.6053098153965525e-03  6.5931337852260102e-03  6.5797659460725307e-03  6.5654019348483188e-03  6.5503326464154896e-03  6.5349007024017407e-03  6.5194655887437954e-03  6.5043768736200089e-03  6.4899541436488038e-03  6.4764724946403708e-03  6.4641528603493065e-03  6.4531567609838816e-03  6.4435850992725016e-03  6.4354804916549914e-03  6.4288324334736621e-03  6.4235844679734581e-03  6.4196425099448950e-03  6.4168835643384076e-03  6.4151642398647714e-03  6.4143286444827349e-03  6.4142154233161539e-03  6.4146638426179313e-03  6.4155189232684810e-03  6.4166356858559072e-03  6.4178825979213858e-03  6.4191443207698012e-03  6.4203238423317967e-03  6.4213440680975196e-03  6.4221489236134001e-03  6.4227040063202512e-03  6.4229968093941631e-03  6.4230365284998342e-03  6.4228534537391808e-03  6.4224979421097540e-03  6.4220389580191550e-03  6.4215621658039700e-03  6.4211675538980127e-03  6.4209665677194480e-03  6.4210787315338268e-03  6.4216277493388471e-03  6.4227370960289500e-03  6.4245251462750931e-03  6.4270999438134253e-03  6.4305537864942537e-03  6.4349578866000935e-03  6.4403574481934102e-03  6.4467675614821932e-03  6.4541703178777471e-03  6.4625134800228613e-03  6.4717108883184105e-03  6.4816445833894148e-03  6.4921684446554821e-03  6.5031131077408592e-03  6.5142921393835131e-03  6.5255099905387540e-03  6.5365730453837770e-03  6.5473058757597943e-03  6.5575751076187017e-03  6.5673223970552676e-03  6.5766050637496819e-03  6.5856371795081914e-03  6.5948150489124335e-03  6.6046998887504919e-03  6.6159204540048658e-03  6.6289581386269197e-03  6.6438054503289226e-03  6.6595743053650125e-03  6.6742839199421707e-03  6.6851905787384466e-03  6.6898811821168996e-03  6.6877379247116224e-03  6.6806931013666387e-03  6.6724103763433316e-03  6.6663374914291140e-03  6.6640784863884715e-03  6.6650969112185716e-03  6.6675483395063802e-03  6.6695660196626275e-03  6.6693593070258315e-03  9.6069604644238166e-03  9.6057173413646516e-03  6.6695175141964838e-03  6.6695560551817898e-03  6.6675137590389705e-03  6.6674454235806854e-03  6.6720291248913398e-03  6.6816332876691586e-03  6.6935511000486975e-03  6.7035711386319932e-03  6.7087796312067169e-03  6.7102010296069652e-03  6.7134896462375804e-03  6.7267552141847264e-03  6.7570771796438833e-03  6.8082292766226613e-03  6.8804986514412261e-03  6.9717315891658846e-03  7.0784802021605780e-03  7.1967369396285508e-03  7.3222733924049183e-03  7.4507786328165890e-03  7.5779593161191400e-03  7.6996772598521765e-03  7.8121321607361321e-03  7.9120618346644606e-03  7.9969227051066988e-03  8.0650185359174426e-03  8.1155574159421581e-03  8.1486308335886534e-03  8.1651214326630556e-03  8.1665559056149986e-03  8.1549252770794570e-03  8.1324961132427862e-03  8.1016334484902974e-03  8.0646506808000132e-03  8.0236949981302846e-03  7.9806705877496983e-03  7.9371969617828345e-03  7.8945966587665520e-03  7.8539052443134041e-03  7.8158965490441670e-03  7.7811169385025303e-03  7.7499236616071845e-03  7.7225236468357536e-03  7.6990102849649675e-03  7.6793966724543125e-03  7.6636444926021369e-03  7.6516881776152526e-03  7.6434542777299719e-03  7.6388761193847132e-03  7.6379038965496415e-03  7.6405103425180032e-03  7.6466920908788427e-03  7.6564667906597675e-03  7.6698659950013570e-03  7.6869237961979878e-03  7.7076611783280097e-03  7.7320660883569287e-03  7.7600693232265858e-03  7.7915165195442601e-03  7.8261368437291742e-03  7.8635094356979685e-03  7.9030292910449232e-03  7.9438750554761892e-03  7.9849821252104478e-03  8.0250253705086705e-03  8.0624165643189277e-03  8.0953219193272835e-03  8.1217047248176230e-03  8.1393966503054416e-03  8.1461987014694870e-03  8.1400092099155399e-03  8.1189720615793340e-03  8.0816343758282963e-03  8.0270998266969915e-03  7.9551623708729660e-03  7.8664054307591227e-03  7.7622532932214855e-03  7.6449643834332129e-03  7.5175606426975752e-03  7.3836950325739392e-03  7.2474722552013440e-03  7.1132561867698757e-03  6.9855148874555587e-03  6.8687510991840284e-03  6.7675072943233980e-03  6.6862860305289470e-03  6.6290315177370274e-03  6.5978131935343146e-03  6.5909199017812961e-03  6.6017015664035922e-03  6.6200328126718548e-03  6.6365962367302307e-03  6.6470547666030201e-03  6.6525742289746843e-03  6.6566341942207591e-03  6.6614062748881452e-03  6.6664696394568811e-03  6.6703004781073008e-03  6.6697545887353799e-03  9.6064240798988329e-03  9.6037026270473086e-03  6.6674660797951396e-03  6.6662231628561198e-03  6.6634923857407796e-03  6.6642081154127814e-03  6.6696052571017760e-03  6.6793729578981352e-03  6.6953591452110668e-03  6.7267729430207091e-03  6.7898243659330615e-03  6.9016516298582645e-03  7.0731558631201494e-03  7.3051243108174235e-03  7.5890567012832921e-03  7.9109489567380856e-03  8.2552450181627990e-03  8.6073075365950824e-03  8.9543870922508539e-03  9.2858268977691477e-03  9.5930839750552194e-03  9.8697426620486181e-03  1.0111477787368199e-02  1.0315909789515042e-02  1.0482351957003123e-02  1.0611494320408109e-02  1.0705078784113316e-02  1.0765606417410006e-02  1.0796096244878532e-02  1.0799896450110806e-02  1.0780538244905540e-02  1.0741619659092067e-02  1.0686708679280579e-02  1.0619259523395971e-02  1.0542540053823386e-02  1.0459571145159878e-02  1.0373079918682408e-02  1.0285468472056872e-02  1.0198798657513261e-02  1.0114792160154158e-02  1.0034844005222469e-02  9.9600468767262473e-03  9.8912233042361894e-03  9.8289627906578830e-03  9.7736612353819599e-03  9.7255604067913379e-03  9.6847856551997846e-03  9.6513804910648357e-03  9.6253370340376732e-03  9.6066216326030560e-03  9.5951951955928136e-03  9.5910279508409219e-03  9.5941084865426296e-03  9.6044470156191331e-03  9.6220728866994176e-03  9.6470264446352413e-03  9.6793454085632030e-03  9.7190460337538975e-03  9.7660994426748415e-03  9.8204036571538991e-03  9.8817520522311852e-03  9.9497991768949731e-03  1.0024025129260247e-02  1.0103699926773645e-02  1.0187849520184242e-02  1.0275225225025740e-02  1.0364278323203788e-02  1.0453141362362806e-02  1.0539617230493924e-02  1.0621176449805758e-02  1.0694962489604255e-02  1.0757804531246716e-02  1.0806237489743804e-02  1.0836530744793960e-02  1.0844730447555725e-02  1.0826725477711276e-02  1.0778353391265302e-02  1.0695567943307477e-02  1.0574690286967711e-02  1.0412756888446437e-02  1.0207954339499954e-02  9.9600948200090286e-03  9.6710464071531055e-03  9.3450154784959008e-03  8.9886218392379105e-03  8.6108346407645225e-03  8.2230007103764671e-03  7.8392206682401586e-03  7.4769603729401418e-03  7.1569650076076657e-03  6.9007775853018385e-03  6.7245813805129548e-03  6.6307337437314026e-03  6.6027224540077777e-03  6.6109167494936283e-03  6.6282307392187059e-03  6.6420029465119011e-03  6.6517263796782716e-03  6.6595753904393346e-03  6.6663078942672260e-03  6.6679064478384308e-03  9.6050294454265578e-03  9.6007082358685186e-03  6.6637739073434551e-03  6.6613561067736700e-03  6.6590810029848804e-03  6.6600862141635332e-03  6.6610973346718054e-03  6.6650614386566630e-03  6.6942151841981219e-03  6.7913026663423692e-03  6.9992346997929944e-03  7.3370122632384072e-03  7.7922161817079241e-03  8.3303315802133529e-03  8.9087635996645473e-03  9.4872117319855717e-03  1.0032905748388075e-02  1.0522026554325603e-02  1.0939067251649226e-02  1.1275579324073880e-02  1.1529007772580452e-02  1.1701645806981478e-02  1.1799535552135476e-02  1.1831271098718010e-02  1.1806813747841455e-02  1.1736467716605102e-02  1.1630113219514036e-02  1.1496719028806050e-02  1.1344100087902695e-02  1.1178858540574585e-02  1.1006443015643103e-02  1.0831271074617108e-02  1.0656874825975542e-02  1.0486044487389282e-02  1.0320956588343547e-02  1.0163281860680544e-02  1.0014273016557114e-02  9.8748352658866376e-03  9.7455833731826119e-03  9.6268889898308285e-03  9.5189213844084353e-03  9.4216839034008404e-03  9.3350477066746207e-03  9.2587836364977985e-03  9.1925925593334679e-03  9.1361341372951654e-03  9.0890537387882039e-03  9.0510070627997097e-03  9.0216820000430936e-03  9.0008172593960684e-03  8.9882173355720421e-03  8.9837634683520781e-03  8.9874203462723401e-03  8.9992384041155254e-03  9.0193516750926295e-03  9.0479712793016809e-03  9.0853747329358928e-03  9.1318913695791482e-03  9.1878842596268342e-03  9.2537290832650429e-03  9.3297904541726900e-03  9.4163961848237956e-03  9.5138099021249839e-03  9.6222022615564673e-03  9.7416207149752798e-03  9.8719573430993759e-03  1.0012913676891055e-02  1.0163960651684657e-02  1.0324290937365511e-02  1.0492759953615011e-02  1.0667811108167606e-02  1.0847380538545157e-02  1.1028777429049959e-02  1.1208538579853385e-02  1.1382261292527250e-02  1.1544427769138402e-02  1.1688247669580654e-02  1.1805562616952127e-02  1.1886874191050577e-02  1.1921568500406737e-02  1.1898404887349230e-02  1.1806301843084788e-02  1.1635386533563767e-02  1.1378197163973584e-02  1.1030895841812806e-02  1.0594422727239532e-02  1.0075680398548101e-02  9.4889672255953975e-03  8.8579225072727488e-03  8.2180379744938234e-03  7.6183250847772707e-03  7.1173367002400761e-03  6.7673462313010621e-03  6.5881761837638664e-03  6.5481302737512778e-03  6.5779206904001061e-03  6.6161709695610540e-03  6.6397171599300239e-03  6.6519491586897392e-03  6.6609704146646520e-03  6.6647086445624365e-03  9.6027691910904461e-03  9.5967228453861519e-03  6.6579658957663795e-03  6.6537240918531602e-03  6.6508534336260326e-03  6.6473726372725840e-03  6.6380576015712608e-03  6.6510610856795743e-03  6.7628609317747362e-03  7.0652811813643399e-03  7.6047881827699115e-03  8.3543740525511764e-03  9.2370154489059969e-03  1.0165165715664080e-02  1.1064084478119365e-02  1.1878314582116606e-02  1.2571654335656150e-02  1.3125074886298216e-02  1.3533172523037255e-02  1.3800192648907507e-02  1.3936781415625342e-02  1.3957687010434927e-02  1.3880027627676865e-02  1.3721815955888075e-02  1.3500698852077810e-02  1.3232996668885742e-02  1.2933099861710047e-02  1.2613204220894077e-02  1.2283310239010720e-02  1.1951393870169191e-02  1.1623665202360599e-02  1.1304853212795396e-02  1.0998477753889215e-02  1.0707088730485315e-02  1.0432465534069554e-02  1.0175777717269567e-02  9.9377119342559245e-03  9.7185716504374214e-03  9.5183560700656464e-03  9.3368239289015123e-03  9.1735466715295241e-03  9.0279543804360138e-03  8.8993767896595397e-03  8.7870808304669826e-03  8.6903054879941474e-03  8.6082942303474450e-03  8.5403249349196297e-03  8.4857370035097412e-03  8.4439552539076271e-03  8.4145101343305814e-03  8.3970538233874292e-03  8.3913718461048614e-03  8.3973899225735019e-03  8.4151758813653665e-03  8.4449365803641804e-03  8.4870099143029773e-03  8.5418521084654267e-03  8.6100206211871533e-03  8.6921530845653142e-03  8.7889427985988755e-03  8.9011113430777292e-03  9.0293788625014845e-03  9.1744324957228132e-03  9.3368932273273642e-03  9.5172811123985304e-03  9.7159782927657493e-03  9.9331885174023735e-03  1.0168890909089685e-02  1.0422784500544589e-02  1.0694218687161625e-02  1.0982103283207187e-02  1.1284790661972292e-02  1.1599921984207208e-02  1.1924230591794559e-02  1.2253299439423479e-02  1.2581277389576782e-02  1.2900572687598491e-02  1.3201561461644418e-02  1.3472372602441100e-02  1.3698831330519447e-02  1.3864649645583274e-02  1.3951927738477844e-02  1.3941973670575203e-02  1.3816398475398360e-02  1.3558497185250581e-02  1.3155139669383732e-02  1.2599499738494176e-02  1.1894335896869952e-02  1.1054596077220050e-02  1.0109666284902119e-02  9.1100689977630794e-03  8.1402790854746901e-03  7.3195122520901754e-03  6.7624085361420797e-03  6.5095040299573206e-03  6.4871954340780004e-03  6.5551490091847013e-03  6.6123569566810328e-03  6.6388804561796390e-03  6.6529752226065011e-03  6.6598682882904360e-03  9.5996816157871284e-03  9.5920150374037352e-03  6.6497493676886330e-03  6.6421961358965192e-03  6.6347260920671600e-03  6.6204787367442758e-03  6.6196635752238456e-03  6.7445449207128236e-03  7.1667869920266428e-03  8.0006942220141528e-03  9.2094394324119117e-03  1.0631864510612168e-02  1.2090073769794520e-02  1.3459554854397808e-02  1.4669800452507639e-02  1.5682354722194265e-02  1.6478139634048275e-02  1.7053595765686047e-02  1.7418005957682496e-02  1.7589642063716486e-02  1.7591949775659955e-02  1.7450764978742275e-02  1.7192434102926563e-02  1.6842412937002248e-02  1.6424171133566944e-02  1.5958434546833399e-02  1.5462808576095451e-02  1.4951750598934922e-02  1.4436798336480962e-02  1.3926943501487189e-02  1.3429055681364981e-02  1.2948290926681101e-02  1.2488448944295454e-02  1.2052265540674907e-02  1.1641641587031556e-02  1.1257817445567496e-02  1.0901504578933331e-02  1.0572985867758698e-02  1.0272194448247875e-02  9.9987786558124042e-03  9.7521584631171734e-03  9.5315769126794250e-03  9.3361485532213948e-03  9.1649057963046690e-03  9.0168433597558675e-03  8.8909604812342571e-03  8.7863003312718194e-03  8.7019859085439855e-03  8.6372517035965060e-03  8.5914704617025828e-03  8.5641744567533928e-03  8.5550708172326267e-03  8.5640505688980434e-03  8.5911912006535196e-03  8.6367527051716061e-03  8.7011671911053634e-03  8.7850223168057309e-03  8.8890389504837561e-03  9.0140436076824523e-03  9.1609363578567318e-03  9.3306550104350558e-03  9.5241364502424777e-03  9.7422759945493681e-03  9.9858854994529164e-03  1.0255650648960640e-02  1.0552087291889264e-02  1.0875495829835082e-02  1.1225911423139785e-02  1.1603046085517446e-02  1.2006216697448717e-02  1.2434250647474533e-02  1.2885358584824744e-02  1.3356962247408947e-02  1.3845465537146669e-02  1.4345960432904155e-02  1.4851867822227582e-02  1.5354528794178111e-02  1.5842785332959020e-02  1.6302618803341502e-02  1.6716942553460894e-02  1.7065655291078431e-02  1.7326031121081206e-02  1.7473434672712965e-02  1.7482240868506568e-02  1.7326855681569789e-02  1.6983091531161648e-02  1.6430698002531101e-02  1.5657374000883711e-02  1.4661834359270084e-02  1.3452086786998177e-02  1.2045003753785574e-02  1.0491239993267704e-02  8.9317535126080885e-03  7.6107669631806443e-03  6.7579521914673812e-03  6.4251596870143618e-03  6.4409816655913166e-03  6.5488068253349400e-03  6.6132259791251181e-03  6.6409611401805103e-03  6.6532736673942487e-03  9.5958742304086825e-03  9.5879233501286812e-03  6.6397225598679790e-03  6.6253078110275268e-03  6.6040926322196158e-03  6.5923434219479042e-03  6.7297897526909095e-03  7.3057619324871370e-03  8.5800650377973256e-03  1.0551513416583842e-02  1.2897560270732675e-02  1.5210518765185956e-02  1.7253639949341586e-02  1.8976090242963602e-02  2.0396297619364318e-02  2.1525672624244284e-02  2.2361078276275793e-02  2.2902608860709134e-02  2.3164521058225931e-02  2.3174462950345226e-02  2.2967997897106948e-02  2.2583670228477695e-02  2.2059719785315485e-02  2.1431941136590471e-02  2.0732267179429886e-02  1.9987957531574382e-02  1.9221347419125512e-02  1.8450059606773872e-02  1.7687530095054721e-02  1.6943690752255949e-02  1.6225679834451168e-02  1.5538493622562655e-02  1.4885533379906113e-02  1.4269033758186500e-02  1.3690379702138933e-02  1.3150330043891045e-02  1.2649169881139607e-02  1.2186813060624621e-02  1.1762872777523747e-02  1.1376714068375191e-02  1.1027497752873289e-02  1.0714221775946636e-02  1.0435763052347127e-02  1.0190920890307625e-02  9.9784617459115349e-03  9.7971642741181558e-03  9.6458632882810147e-03  9.5234911422813484e-03  9.4291151287193981e-03  9.3619696708018979e-03  9.3214823103375394e-03  9.3072927278712719e-03  9.3192642803722331e-03  9.3574877635789477e-03  9.4222773447799613e-03  9.5141588281394823e-03  9.6338506511969568e-03  9.7822382443360223e-03  9.9603426230203407e-03  1.0169284317786131e-02  1.0410243947891584e-02  1.0684420868486810e-02  1.0992991333801660e-02  1.1337067386722743e-02  1.1717657150357108e-02  1.2135626203443564e-02  1.2591658147356036e-02  1.3086210237568036e-02  1.3619456969461485e-02  1.4191210941546420e-02  1.4800806432214625e-02  1.5446927561467927e-02  1.6127360668824461e-02  1.6838651128613658e-02  1.7575650253922284e-02  1.8330950527737588e-02  1.9094229475406524e-02  1.9851555474758475e-02  2.0584751617393787e-02  2.1270960562556798e-02  2.1882590834475121e-02  2.2387831089453344e-02  2.2751868124949504e-02  2.2938829294025728e-02  2.2914344333372125e-02  2.2648616065780627e-02  2.2119975072032380e-02  2.1318141180927334e-02  2.0242864516976260e-02  1.8888930717891779e-02  1.7217398334989441e-02  1.5155111768259656e-02  1.2704982688394782e-02  1.0143043538740605e-02  8.0103955271752444e-03  6.7368347207710233e-03  6.3318639851133174e-03  6.4166139247058065e-03  6.5583840956167060e-03  6.6227910145686270e-03  6.6453177614638828e-03  9.5919198330602223e-03  9.5882834029300881e-03  6.6307443920983963e-03  6.5992019872997687e-03  6.5580510498227489e-03  6.6792756284564589e-03  7.4094217820630734e-03  9.2706694936408179e-03  1.2442380893092533e-02  1.6410784606821216e-02  2.0269078046615437e-02  2.3449443268533737e-02  2.5933450642537069e-02  2.7919070823621009e-02  2.9528999159054381e-02  3.0769531421749319e-02  3.1606309132620414e-02  3.2024673906382278e-02  3.2044915053500655e-02  3.1713166742425775e-02  3.1088449284603512e-02  3.023333531