<?xml version="1.0"?>
<VTKFile type="UnstructuredGrid"  version="0.1"  >
<UnstructuredGrid>
<Piece  NumberOfPoints="10201" NumberOfCells="20000">
<Points>
<DataArray  type="Float64"  NumberOfComponents="3"  format="ascii">0 0 0  0.015 0 0  0.03 0 0  0.045 0 0  0.06 0 0  0.075 0 0  0.09 0 0  0.105 0 0  0.12 0 0  0.135 0 0  0.15 0 0  0.165 0 0  0.18 0 0  0.195 0 0  0.21 0 0  0.225 0 0  0.24 0 0  0.255 0 0  0.27 0 0  0.285 0 0  0.3 0 0  0.315 0 0  0.33 0 0  0.345 0 0  0.36 0 0  0.375 0 0  0.39 0 0  0.405 0 0  0.42 0 0  0.435 0 0  0.45 0 0  0.465 0 0  0.48 0 0  0.495 0 0  0.51 0 0  0.525 0 0  0.54 0 0  0.555 0 0  0.57 0 0  0.585 0 0  0.6 0 0  0.615 0 0  0.63 0 0  0.645 0 0  0.66 0 0  0.675 0 0  0.6899999999999999 0 0  0.705 0 0  0.72 0 0  0.735 0 0  0.75 0 0  0.765 0 0  0.78 0 0  0.795 0 0  0.8100000000000001 0 0  0.825 0 0  0.84 0 0  0.855 0 0  0.87 0 0  0.885 0 0  0.9 0 0  0.915 0 0  0.93 0 0  0.945 0 0  0.96 0 0  0.975 0 0  0.99 0 0  1.005 0 0  1.02 0 0  1.035 0 0  1.05 0 0  1.065 0 0  1.08 0 0  1.095 0 0  1.11 0 0  1.125 0 0  1.14 0 0  1.155 0 0  1.17 0 0  1.185 0 0  1.2 0 0  1.215 0 0  1.23 0 0  1.245 0 0  1.26 0 0  1.275 0 0  1.29 0 0  1.305 0 0  1.32 0 0  1.335 0 0  1.35 0 0  1.365 0 0  1.38 0 0  1.395 0 0  1.41 0 0  1.425 0 0  1.44 0 0  1.455 0 0  1.47 0 0  1.485 0 0  1.5 0 0  0 0.01 0  0.015 0.01 0  0.03 0.01 0  0.045 0.01 0  0.06 0.01 0  0.075 0.01 0  0.09 0.01 0  0.105 0.01 0  0.12 0.01 0  0.135 0.01 0  0.15 0.01 0  0.165 0.01 0  0.18 0.01 0  0.195 0.01 0  0.21 0.01 0  0.225 0.01 0  0.24 0.01 0  0.255 0.01 0  0.27 0.01 0  0.285 0.01 0  0.3 0.01 0  0.315 0.01 0  0.33 0.01 0  0.345 0.01 0  0.36 0.01 0  0.375 0.01 0  0.39 0.01 0  0.405 0.01 0  0.42 0.01 0  0.435 0.01 0  0.45 0.01 0  0.465 0.01 0  0.48 0.01 0  0.495 0.01 0  0.51 0.01 0  0.525 0.01 0  0.54 0.01 0  0.555 0.01 0  0.57 0.01 0  0.585 0.01 0  0.6 0.01 0  0.615 0.01 0  0.63 0.01 0  0.645 0.01 0  0.66 0.01 0  0.675 0.01 0  0.6899999999999999 0.01 0  0.705 0.01 0  0.72 0.01 0  0.735 0.01 0  0.75 0.01 0  0.765 0.01 0  0.78 0.01 0  0.795 0.01 0  0.8100000000000001 0.01 0  0.825 0.01 0  0.84 0.01 0  0.855 0.01 0  0.87 0.01 0  0.885 0.01 0  0.9 0.01 0  0.915 0.01 0  0.93 0.01 0  0.945 0.01 0  0.96 0.01 0  0.975 0.01 0  0.99 0.01 0  1.005 0.01 0  1.02 0.01 0  1.035 0.01 0  1.05 0.01 0  1.065 0.01 0  1.08 0.01 0  1.095 0.01 0  1.11 0.01 0  1.125 0.01 0  1.14 0.01 0  1.155 0.01 0  1.17 0.01 0  1.185 0.01 0  1.2 0.01 0  1.215 0.01 0  1.23 0.01 0  1.245 0.01 0  1.26 0.01 0  1.275 0.01 0  1.29 0.01 0  1.305 0.01 0  1.32 0.01 0  1.335 0.01 0  1.35 0.01 0  1.365 0.01 0  1.38 0.01 0  1.395 0.01 0  1.41 0.01 0  1.425 0.01 0  1.44 0.01 0  1.455 0.01 0  1.47 0.01 0  1.485 0.01 0  1.5 0.01 0  0 0.02 0  0.015 0.02 0  0.03 0.02 0  0.045 0.02 0  0.06 0.02 0  0.075 0.02 0  0.09 0.02 0  0.105 0.02 0  0.12 0.02 0  0.135 0.02 0  0.15 0.02 0  0.165 0.02 0  0.18 0.02 0  0.195 0.02 0  0.21 0.02 0  0.225 0.02 0  0.24 0.02 0  0.255 0.02 0  0.27 0.02 0  0.285 0.02 0  0.3 0.02 0  0.315 0.02 0  0.33 0.02 0  0.345 0.02 0  0.36 0.02 0  0.375 0.02 0  0.39 0.02 0  0.405 0.02 0  0.42 0.02 0  0.435 0.02 0  0.45 0.02 0  0.465 0.02 0  0.48 0.02 0  0.495 0.02 0  0.51 0.02 0  0.525 0.02 0  0.54 0.02 0  0.555 0.02 0  0.57 0.02 0  0.585 0.02 0  0.6 0.02 0  0.615 0.02 0  0.63 0.02 0  0.645 0.02 0  0.66 0.02 0  0.675 0.02 0  0.6899999999999999 0.02 0  0.705 0.02 0  0.72 0.02 0  0.735 0.02 0  0.75 0.02 0  0.765 0.02 0  0.78 0.02 0  0.795 0.02 0  0.8100000000000001 0.02 0  0.825 0.02 0  0.84 0.02 0  0.855 0.02 0  0.87 0.02 0  0.885 0.02 0  0.9 0.02 0  0.915 0.02 0  0.93 0.02 0  0.945 0.02 0  0.96 0.02 0  0.975 0.02 0  0.99 0.02 0  1.005 0.02 0  1.02 0.02 0  1.035 0.02 0  1.05 0.02 0  1.065 0.02 0  1.08 0.02 0  1.095 0.02 0  1.11 0.02 0  1.125 0.02 0  1.14 0.02 0  1.155 0.02 0  1.17 0.02 0  1.185 0.02 0  1.2 0.02 0  1.215 0.02 0  1.23 0.02 0  1.245 0.02 0  1.26 0.02 0  1.275 0.02 0  1.29 0.02 0  1.305 0.02 0  1.32 0.02 0  1.335 0.02 0  1.35 0.02 0  1.365 0.02 0  1.38 0.02 0  1.395 0.02 0  1.41 0.02 0  1.425 0.02 0  1.44 0.02 0  1.455 0.02 0  1.47 0.02 0  1.485 0.02 0  1.5 0.02 0  0 0.03 0  0.015 0.03 0  0.03 0.03 0  0.045 0.03 0  0.06 0.03 0  0.075 0.03 0  0.09 0.03 0  0.105 0.03 0  0.12 0.03 0  0.135 0.03 0  0.15 0.03 0  0.165 0.03 0  0.18 0.03 0  0.195 0.03 0  0.21 0.03 0  0.225 0.03 0  0.24 0.03 0  0.255 0.03 0  0.27 0.03 0  0.285 0.03 0  0.3 0.03 0  0.315 0.03 0  0.33 0.03 0  0.345 0.03 0  0.36 0.03 0  0.375 0.03 0  0.39 0.03 0  0.405 0.03 0  0.42 0.03 0  0.435 0.03 0  0.45 0.03 0  0.465 0.03 0  0.48 0.03 0  0.495 0.03 0  0.51 0.03 0  0.525 0.03 0  0.54 0.03 0  0.555 0.03 0  0.57 0.03 0  0.585 0.03 0  0.6 0.03 0  0.615 0.03 0  0.63 0.03 0  0.645 0.03 0  0.66 0.03 0  0.675 0.03 0  0.6899999999999999 0.03 0  0.705 0.03 0  0.72 0.03 0  0.735 0.03 0  0.75 0.03 0  0.765 0.03 0  0.78 0.03 0  0.795 0.03 0  0.8100000000000001 0.03 0  0.825 0.03 0  0.84 0.03 0  0.855 0.03 0  0.87 0.03 0  0.885 0.03 0  0.9 0.03 0  0.915 0.03 0  0.93 0.03 0  0.945 0.03 0  0.96 0.03 0  0.975 0.03 0  0.99 0.03 0  1.005 0.03 0  1.02 0.03 0  1.035 0.03 0  1.05 0.03 0  1.065 0.03 0  1.08 0.03 0  1.095 0.03 0  1.11 0.03 0  1.125 0.03 0  1.14 0.03 0  1.155 0.03 0  1.17 0.03 0  1.185 0.03 0  1.2 0.03 0  1.215 0.03 0  1.23 0.03 0  1.245 0.03 0  1.26 0.03 0  1.275 0.03 0  1.29 0.03 0  1.305 0.03 0  1.32 0.03 0  1.335 0.03 0  1.35 0.03 0  1.365 0.03 0  1.38 0.03 0  1.395 0.03 0  1.41 0.03 0  1.425 0.03 0  1.44 0.03 0  1.455 0.03 0  1.47 0.03 0  1.485 0.03 0  1.5 0.03 0  0 0.04 0  0.015 0.04 0  0.03 0.04 0  0.045 0.04 0  0.06 0.04 0  0.075 0.04 0  0.09 0.04 0  0.105 0.04 0  0.12 0.04 0  0.135 0.04 0  0.15 0.04 0  0.165 0.04 0  0.18 0.04 0  0.195 0.04 0  0.21 0.04 0  0.225 0.04 0  0.24 0.04 0  0.255 0.04 0  0.27 0.04 0  0.285 0.04 0  0.3 0.04 0  0.315 0.04 0  0.33 0.04 0  0.345 0.04 0  0.36 0.04 0  0.375 0.04 0  0.39 0.04 0  0.405 0.04 0  0.42 0.04 0  0.435 0.04 0  0.45 0.04 0  0.465 0.04 0  0.48 0.04 0  0.495 0.04 0  0.51 0.04 0  0.525 0.04 0  0.54 0.04 0  0.555 0.04 0  0.57 0.04 0  0.585 0.04 0  0.6 0.04 0  0.615 0.04 0  0.63 0.04 0  0.645 0.04 0  0.66 0.04 0  0.675 0.04 0  0.6899999999999999 0.04 0  0.705 0.04 0  0.72 0.04 0  0.735 0.04 0  0.75 0.04 0  0.765 0.04 0  0.78 0.04 0  0.795 0.04 0  0.8100000000000001 0.04 0  0.825 0.04 0  0.84 0.04 0  0.855 0.04 0  0.87 0.04 0  0.885 0.04 0  0.9 0.04 0  0.915 0.04 0  0.93 0.04 0  0.945 0.04 0  0.96 0.04 0  0.975 0.04 0  0.99 0.04 0  1.005 0.04 0  1.02 0.04 0  1.035 0.04 0  1.05 0.04 0  1.065 0.04 0  1.08 0.04 0  1.095 0.04 0  1.11 0.04 0  1.125 0.04 0  1.14 0.04 0  1.155 0.04 0  1.17 0.04 0  1.185 0.04 0  1.2 0.04 0  1.215 0.04 0  1.23 0.04 0  1.245 0.04 0  1.26 0.04 0  1.275 0.04 0  1.29 0.04 0  1.305 0.04 0  1.32 0.04 0  1.335 0.04 0  1.35 0.04 0  1.365 0.04 0  1.38 0.04 0  1.395 0.04 0  1.41 0.04 0  1.425 0.04 0  1.44 0.04 0  1.455 0.04 0  1.47 0.04 0  1.485 0.04 0  1.5 0.04 0  0 0.05 0  0.015 0.05 0  0.03 0.05 0  0.045 0.05 0  0.06 0.05 0  0.075 0.05 0  0.09 0.05 0  0.105 0.05 0  0.12 0.05 0  0.135 0.05 0  0.15 0.05 0  0.165 0.05 0  0.18 0.05 0  0.195 0.05 0  0.21 0.05 0  0.225 0.05 0  0.24 0.05 0  0.255 0.05 0  0.27 0.05 0  0.285 0.05 0  0.3 0.05 0  0.315 0.05 0  0.33 0.05 0  0.345 0.05 0  0.36 0.05 0  0.375 0.05 0  0.39 0.05 0  0.405 0.05 0  0.42 0.05 0  0.435 0.05 0  0.45 0.05 0  0.465 0.05 0  0.48 0.05 0  0.495 0.05 0  0.51 0.05 0  0.525 0.05 0  0.54 0.05 0  0.555 0.05 0  0.57 0.05 0  0.585 0.05 0  0.6 0.05 0  0.615 0.05 0  0.63 0.05 0  0.645 0.05 0  0.66 0.05 0  0.675 0.05 0  0.6899999999999999 0.05 0  0.705 0.05 0  0.72 0.05 0  0.735 0.05 0  0.75 0.05 0  0.765 0.05 0  0.78 0.05 0  0.795 0.05 0  0.8100000000000001 0.05 0  0.825 0.05 0  0.84 0.05 0  0.855 0.05 0  0.87 0.05 0  0.885 0.05 0  0.9 0.05 0  0.915 0.05 0  0.93 0.05 0  0.945 0.05 0  0.96 0.05 0  0.975 0.05 0  0.99 0.05 0  1.005 0.05 0  1.02 0.05 0  1.035 0.05 0  1.05 0.05 0  1.065 0.05 0  1.08 0.05 0  1.095 0.05 0  1.11 0.05 0  1.125 0.05 0  1.14 0.05 0  1.155 0.05 0  1.17 0.05 0  1.185 0.05 0  1.2 0.05 0  1.215 0.05 0  1.23 0.05 0  1.245 0.05 0  1.26 0.05 0  1.275 0.05 0  1.29 0.05 0  1.305 0.05 0  1.32 0.05 0  1.335 0.05 0  1.35 0.05 0  1.365 0.05 0  1.38 0.05 0  1.395 0.05 0  1.41 0.05 0  1.425 0.05 0  1.44 0.05 0  1.455 0.05 0  1.47 0.05 0  1.485 0.05 0  1.5 0.05 0  0 0.06 0  0.015 0.06 0  0.03 0.06 0  0.045 0.06 0  0.06 0.06 0  0.075 0.06 0  0.09 0.06 0  0.105 0.06 0  0.12 0.06 0  0.135 0.06 0  0.15 0.06 0  0.165 0.06 0  0.18 0.06 0  0.195 0.06 0  0.21 0.06 0  0.225 0.06 0  0.24 0.06 0  0.255 0.06 0  0.27 0.06 0  0.285 0.06 0  0.3 0.06 0  0.315 0.06 0  0.33 0.06 0  0.345 0.06 0  0.36 0.06 0  0.375 0.06 0  0.39 0.06 0  0.405 0.06 0  0.42 0.06 0  0.435 0.06 0  0.45 0.06 0  0.465 0.06 0  0.48 0.06 0  0.495 0.06 0  0.51 0.06 0  0.525 0.06 0  0.54 0.06 0  0.555 0.06 0  0.57 0.06 0  0.585 0.06 0  0.6 0.06 0  0.615 0.06 0  0.63 0.06 0  0.645 0.06 0  0.66 0.06 0  0.675 0.06 0  0.6899999999999999 0.06 0  0.705 0.06 0  0.72 0.06 0  0.735 0.06 0  0.75 0.06 0  0.765 0.06 0  0.78 0.06 0  0.795 0.06 0  0.8100000000000001 0.06 0  0.825 0.06 0  0.84 0.06 0  0.855 0.06 0  0.87 0.06 0  0.885 0.06 0  0.9 0.06 0  0.915 0.06 0  0.93 0.06 0  0.945 0.06 0  0.96 0.06 0  0.975 0.06 0  0.99 0.06 0  1.005 0.06 0  1.02 0.06 0  1.035 0.06 0  1.05 0.06 0  1.065 0.06 0  1.08 0.06 0  1.095 0.06 0  1.11 0.06 0  1.125 0.06 0  1.14 0.06 0  1.155 0.06 0  1.17 0.06 0  1.185 0.06 0  1.2 0.06 0  1.215 0.06 0  1.23 0.06 0  1.245 0.06 0  1.26 0.06 0  1.275 0.06 0  1.29 0.06 0  1.305 0.06 0  1.32 0.06 0  1.335 0.06 0  1.35 0.06 0  1.365 0.06 0  1.38 0.06 0  1.395 0.06 0  1.41 0.06 0  1.425 0.06 0  1.44 0.06 0  1.455 0.06 0  1.47 0.06 0  1.485 0.06 0  1.5 0.06 0  0 0.07000000000000001 0  0.015 0.07000000000000001 0  0.03 0.07000000000000001 0  0.045 0.07000000000000001 0  0.06 0.07000000000000001 0  0.075 0.07000000000000001 0  0.09 0.07000000000000001 0  0.105 0.07000000000000001 0  0.12 0.07000000000000001 0  0.135 0.07000000000000001 0  0.15 0.07000000000000001 0  0.165 0.07000000000000001 0  0.18 0.07000000000000001 0  0.195 0.07000000000000001 0  0.21
[...]
<PointData  Scalars="ControlVisualisation"> 
<DataArray  type="Float64"  Name="ControlVisualisation"  format="ascii">6.5719886727363596e-03  1.2996959174879990e-02  1.2995218966524325e-02  1.2992781051581546e-02  1.2990855058584130e-02  1.2990876335218903e-02  1.2994196990039345e-02  1.3001634767453207e-02  1.3013153300837186e-02  1.3027902919591248e-02  1.3044576200763389e-02  1.3061831856861085e-02  1.3078561758435732e-02  1.3093950189849168e-02  1.3107417475117209e-02  1.3118556693128683e-02  1.3127109462559045e-02  1.3132969900810667e-02  1.3136189302289287e-02  1.3136964524171686e-02  1.3135608254826566e-02  1.3132508312903335e-02  1.3128085133692881e-02  1.3122754571735111e-02  1.3116899862358223e-02  1.3110853659008498e-02  1.3104889122918727e-02  1.3099218101887534e-02  1.3093994239889849e-02  1.3089319095554251e-02  1.3085249762708724e-02  1.3081806919606259e-02  1.3078982604852941e-02  1.3076747303775636e-02  1.3075056133216890e-02  1.3073854051059489e-02  1.3073080107434368e-02  1.3072670810067782e-02  1.3072562707131247e-02  1.3072694305063371e-02  1.3073007440299832e-02  1.3073448217516775e-02  1.3073967615591259e-02  1.3074521847886423e-02  1.3075072548745625e-02  1.3075586843344917e-02  1.3076037345193543e-02  1.3076402113867978e-02  1.3076664596545984e-02  1.3076813569428783e-02  1.3076843089370880e-02  1.3076752461952765e-02  1.3076546228607579e-02  1.3076234173059011e-02  1.3075831344163930e-02  1.3075358089829367e-02  1.3074840092552505e-02  1.3074308392850341e-02  1.3073799380183961e-02  1.3073354723876187e-02  1.3073021206521439e-02  1.3072850412106032e-02  1.3072898208437617e-02  1.3073223950784958e-02  1.3073889321671540e-02  1.3074956709317725e-02  1.3076487020060871e-02  1.3078536815413645e-02  1.3081154667565585e-02  1.3084376640647153e-02  1.3088220834290613e-02  1.3092680980006967e-02  1.3097719173192034e-02  1.3103257972438005e-02  1.3109172325305590e-02  1.3115282103146277e-02  1.3121346446388146e-02  1.3127061595209323e-02  1.3132064294819553e-02  1.3135943025873231e-02  1.3138258935316683e-02  1.3138577150881960e-02  1.3136507019153424e-02  1.3131746961767886e-02  1.3124127026636080e-02  1.3113641698710486e-02  1.3100469775343506e-02  1.3084988381080513e-02  1.3067798743464195e-02  1.3049774342527305e-02  1.3032099032087503e-02  1.3016202219904065e-02  1.3003497620299750e-02  1.2994957774989350e-02  1.2990737164541142e-02  1.2990102321082700e-02  1.2991738255201214e-02  1.2994224514277541e-02  1.2996352514502497e-02  1.2997334924923247e-02  5.8278126424038547e-02  1.2997166941128060e-02  8.1641173737337629e-03  8.1628332225004933e-03  8.1597348426522189e-03  8.1574881909080126e-03  8.1593855102821203e-03  8.1681286883860671e-03  8.1844784757727461e-03  8.2066636640633576e-03  8.2311009203172771e-03  8.2540999646197634e-03  8.2734418516562137e-03  8.2888404865964493e-03  8.3012821642000963e-03  8.3119951446390464e-03  8.3217406171318536e-03  8.3306248470357488e-03  8.3382688088617721e-03  8.3440937760844609e-03  8.3475637099051751e-03  8.3483275371509080e-03  8.3462678992926188e-03  8.3414867900339779e-03  8.3342592017131862e-03  8.3249775278386538e-03  8.3140998373399614e-03  8.3021075571535728e-03  8.2894734051960021e-03  8.2766382353171540e-03  8.2639949519648544e-03  8.2518779759612210e-03  8.2405572604467466e-03  8.2302362238277586e-03  8.2210530965758574e-03  8.2130851290844065e-03  8.2063549990385749e-03  8.2008386831384245e-03  8.1964740662660227e-03  8.1931696521948868e-03  8.1908128840272459e-03  8.1892777453766424e-03  8.1884314620694273e-03  8.1881402454478842e-03  8.1882741020599618e-03  8.1887107830901779e-03  8.1893389688925400e-03  8.1900607886436147e-03  8.1907937635108414e-03  8.1914722474773338e-03  8.1920484220952914e-03  8.1924928857409051e-03  8.1927948626878914e-03  8.1929620449225759e-03  8.1930200697358721e-03  8.1930116276786157e-03  8.1929951863734460e-03  8.1930433100550551e-03  8.1932405486130899e-03  8.1936808652626567e-03  8.1944645724159812e-03  8.1956947513702558e-03  8.1974731473964425e-03  8.1998955605326711e-03  8.2030467976333017e-03  8.2069953114527212e-03  8.2117877232936870e-03  8.2174434959529381e-03  8.2239500755535832e-03  8.2312588295561009e-03  8.2392820597109746e-03  8.2478912562493970e-03  8.2569166144332920e-03  8.2661477210193395e-03  8.2753353404887726e-03  8.2841944880399521e-03  8.2924095339987954e-03  8.2996428856227725e-03  8.3055496171570119e-03  8.3098008428457073e-03  8.3121180225675054e-03  8.3123179925090641e-03  8.3103635833869042e-03  8.3064068330074396e-03  8.3008016123273208e-03  8.2940528004659952e-03  8.2866676698540621e-03  8.2788984331399404e-03  8.2704380981739462e-03  8.2602639266410281e-03  8.2469349638886452e-03  8.2295183719708655e-03  8.2087659133486326e-03  8.1875542753801055e-03  8.1698449507226541e-03  8.1586831627470432e-03  8.1547014304910737e-03  8.1561030392294752e-03  8.1598337619285706e-03  8.1631072144321085e-03  8.1637842718789207e-03  1.2997379878982699e-02  1.2996028470548395e-02  8.1631346128566810e-03  8.1612559192203778e-03  8.1571163078759286e-03  8.1562053102400001e-03  8.1642983896425495e-03  8.1855995207744219e-03  8.2207128587811467e-03  8.2669962803024535e-03  8.3209209180369632e-03  8.3810001138961247e-03  8.4491154777140264e-03  8.5291323441385753e-03  8.6241852501451090e-03  8.7349171890520935e-03  8.8594743068241711e-03  8.9944952891181373e-03  9.1361105662861562e-03  9.2805161515224950e-03  9.4241611344035268e-03  9.5637455739737698e-03  9.6961906216519143e-03  9.8186587745214011e-03  9.9286356336210097e-03  1.0024049037733442e-02  1.0103390453020970e-02  1.0165807053315113e-02  1.0211143275593708e-02  1.0239923042254689e-02  1.0253275496804064e-02  1.0252816268875722e-02  1.0240501871660163e-02  1.0218476430036021e-02  1.0188927963010087e-02  1.0153966969221155e-02  1.0115534520745836e-02  1.0075341783839158e-02  1.0034838741545140e-02  9.9952072941228449e-03  9.9573727787037655e-03  9.9220279599357402e-03  9.8896642678419633e-03  9.8606061204716058e-03  9.8350452910673618e-03  9.8130732729906148e-03  9.7947103876681804e-03  9.7799309776905093e-03  9.7686844196367799e-03  9.7609119277452267e-03  9.7565592474299148e-03  9.7555853846013323e-03  9.7579675132603329e-03  9.7637021643621341e-03  9.7728027546615734e-03  9.7852934686164794e-03  9.8011994597292530e-03  9.8205333295523466e-03  9.8432778614978029e-03  9.8693650628225819e-03  9.8986517237859908e-03  9.9308919634289311e-03  9.9657076149552923e-03  1.0002557838304380e-02  1.0040710016154995e-02  1.0079214769642457e-02  1.0116888713008183e-02  1.0152309214121639e-02  1.0183825697674878e-02  1.0209591676307202e-02  1.0227620486784876e-02  1.0235865527953698e-02  1.0232322768998244e-02  1.0215149819453406e-02  1.0182792592403480e-02  1.0134108249082110e-02  1.0068472249868107e-02  9.9858580852714932e-03  9.8868804014768871e-03  9.7727955427022156e-03  9.6454583302619419e-03  9.5072412986867989e-03  9.3609339735159607e-03  9.2096545578983953e-03  9.0568183546439369e-03  8.9061990975498745e-03  8.7620603099152830e-03  8.6291962473614304e-03  8.5125469784564714e-03  8.4160505713892948e-03  8.3409038704772946e-03  8.2844062211753552e-03  8.2410336077119103e-03  8.2058696953830664e-03  8.1776696095602168e-03  8.1584122915498349e-03  8.1498249869788701e-03  8.1505234117221163e-03  8.1561412965033293e-03  8.1619735599820741e-03  8.1635151317206427e-03  1.2996792055283084e-02  1.2993840115556996e-02  8.1602672081779268e-03  8.1568530787933958e-03  8.1533831399884654e-03  8.1574320666686767e-03  8.1758072226666180e-03  8.2141233983457334e-03  8.2776263620134051e-03  8.3746084842869807e-03  8.5167046034699406e-03  8.7147399036783500e-03  8.9732993050764195e-03  9.2879089670309181e-03  9.6462514830086346e-03  1.0031895614281099e-02  1.0428046855999771e-02  1.0819837381240763e-02  1.1195136822680175e-02  1.1544567009240565e-02  1.1861288584466464e-02  1.2140770499757248e-02  1.2380544701048756e-02  1.2579914687914261e-02  1.2739621187057454e-02  1.2861497347273978e-02  1.2948150653296121e-02  1.3002696597070458e-02  1.3028552050811800e-02  1.3029282567646221e-02  1.3008490722800931e-02  1.2969731686386925e-02  1.2916445275149773e-02  1.2851898260470630e-02  1.2779134814584578e-02  1.2700935670872555e-02  1.2619787663247450e-02  1.2537865137857634e-02  1.2457023836870518e-02  1.2378806745643504e-02  1.2304460429325382e-02  1.2234959739047389e-02  1.2171038481515543e-02  1.2113223652395189e-02  1.2061871068001780e-02  1.2017200566130495e-02  1.1979329312962620e-02  1.1948302118409294e-02  1.1924117979513470e-02  1.1906752314176349e-02  1.1896174544822462e-02  1.1892360829467003e-02  1.1895301846328985e-02  1.1905005598806313e-02  1.1921495266515860e-02  1.1944802183530801e-02  1.1974954068767403e-02  1.2011958705233274e-02  1.2055783356072316e-02  1.2106330320415810e-02  1.2163409184388612e-02  1.2226706507546564e-02  1.2295753886271302e-02  1.2369895547582591e-02  1.2448256801615994e-02  1.2529714785180984e-02  1.2612872907515327e-02  1.2696040213779567e-02  1.2777216490541865e-02  1.2854083388914184e-02  1.2924001281793013e-02  1.2984011252549098e-02  1.3030841935143651e-02  1.3060922365393524e-02  1.3070405007038950e-02  1.3055207759257252e-02  1.3011089488168603e-02  1.2933778801853868e-02  1.2819177401142546e-02  1.2663653389250988e-02  1.2464422818017754e-02  1.2219989343132774e-02  1.1930580151101487e-02  1.1598501712375938e-02  1.1228371787429499e-02  1.0827283500940392e-02  1.0405082439762403e-02  9.9749397487719545e-03  9.5540700412919503e-03  9.1637249060663971e-03  8.8269342511110935e-03  8.5628515270498029e-03  8.3789093758529828e-03  8.2658813741046562e-03  8.2023604546471729e-03  8.1675506134216511e-03  8.1501428311522607e-03  8.1456175522871647e-03  8.1495712489286741e-03  8.1568522485643957e-03  8.1608913780857641e-03  1.2995269934263323e-02  1.2990567699769751e-02  8.1554196841824092e-03  8.1508574044457886e-03  8.1509806813768824e-03  8.1634929771394402e-03  8.1936464207097368e-03  8.2510370232414740e-03  8.3581206767856398e-03  8.5510317469544815e-03  8.8629529608032671e-03  9.3041488596631895e-03  9.8563993865939965e-03  1.0482125889993098e-02  1.1137473875807302e-02  1.1781976536753636e-02  1.2383422189336489e-02  1.2919084955289758e-02  1.3374932204457544e-02  1.3744175990754151e-02  1.4025877239487134e-02  1.4223698836300329e-02  1.4344694033618606e-02  1.4398098931701714e-02  1.4394210326009885e-02  1.4343455325191132e-02  1.4255715836854725e-02  1.4139911727825284e-02  1.4003803440108079e-02  1.3853955780969863e-02  1.3695804305943344e-02  1.3533775825398532e-02  1.3371428208486582e-02  1.3211587618920041e-02  1.3056471640348082e-02  1.2907793958747128e-02  1.2766850715762695e-02  1.2634590947092706e-02  1.2511674357780519e-02  1.2398519654556659e-02  1.2295346149841136e-02  1.2202210691716417e-02  1.2119041313083251e-02  1.2045668417439953e-02  1.1981853882100360e-02  1.1927318138127318e-02  1.1881765076050177e-02  1.1844904510428925e-02  1.1816471887419742e-02  1.1796244915693845e-02  1.1784056831308051e-02  1.1779806056879019e-02  1.1783462087704104e-02  1.1795067503082863e-02  1.1814736078817665e-02  1.1842647061743660e-02  1.1879035737646046e-02  1.1924180498295862e-02  1.1978386678826915e-02  1.2041967482693568e-02  1.2115222335918328e-02  1.2198412998903660e-02  1.2291737688866728e-02  1.2395303326481547e-02  1.2509095771284638e-02  1.2632947534711598e-02  1.2766501965035981e-02  1.2909172242767750e-02  1.3060092770063488e-02  1.3218059761810074e-02  1.3381457217625500e-02  1.3548164275438632e-02  1.3715440675005649e-02  1.3879789343414758e-02  1.4036799774410592e-02  1.4180983729339394e-02  1.4305626346588730e-02  1.4402690568254687e-02  1.4462828447541976e-02  1.4475563963354456e-02  1.4429709670308016e-02  1.4314054129198825e-02  1.4118305477848678e-02  1.3834215415270476e-02  1.3456781815473901e-02  1.2985484481316313e-02  1.2425629988293531e-02  1.1789972359729740e-02  1.1100784540351379e-02  1.0392336682744918e-02  9.7124444191789300e-03  9.1188307915918421e-03  8.6648386745260333e-03  8.3756601872942062e-03  8.2304078982367041e-03  8.1732640538652711e-03  8.1522723372406229e-03  8.1440866323504932e-03  8.1439269165952937e-03  8.1502866988172294e-03  8.1565511551752283e-03  1.2992765731176097e-02  1.2986217882760423e-02  8.1481917394364816e-03  8.1423719542705886e-03  8.1480632539190460e-03  8.1710606282153278e-03  8.2171378930967157e-03  8.3179702067415085e-03  8.5423792933607724e-03  8.9676182732659222e-03  9.6268016805400990e-03  1.0486031857081177e-02  1.1466987649516170e-02  1.2482995395177372e-02  1.3460477877176340e-02  1.4345156317669153e-02  1.5102046135166825e-02  1.5713318993952129e-02  1.6174723393852970e-02  1.6491577813208199e-02  1.6675431399272349e-02  1.6741653494510258e-02  1.6707648961866529e-02  1.6591420422015155e-02  1.6410408607213618e-02  1.6180647108844551e-02  1.5916252738489345e-02  1.5629218084834615e-02  1.5329433682233003e-02  1.5024856848156963e-02  1.4721754699111283e-02  1.4424968284464023e-02  1.4138164615635579e-02  1.3864059420142202e-02  1.3604604610341587e-02  1.3361141223004280e-02  1.3134522072830175e-02  1.2925209667560993e-02  1.2733354923395578e-02  1.2558861561751827e-02  1.2401440122421966e-02  1.2260654554022478e-02  1.2135963465788912e-02  1.2026757374215208e-02  1.1932392711283086e-02  1.1852222923337583e-02  1.1785626703192529e-02  1.1732033199556660e-02  1.1690943954318848e-02  1.1661951275830078e-02  1.1644752759121829e-02  1.1639161707250517e-02  1.1645113264007165e-02  1.1662666147216874e-02  1.1691999945647968e-02  1.1733408037340780e-02  1.1787286268995886e-02  1.1854117621137705e-02  1.1934453156878598e-02  1.2028889609856503e-02  1.2138043995855427e-02  1.2262525615654689e-02  1.2402905738334521e-02  1.2559685084032981e-02  1.2733258945299164e-02  1.2923879330267946e-02  1.3131612909172504e-02  1.3356292721102146e-02  1.3597460565519793e-02  1.3854295846813171e-02  1.4125525427783328e-02  1.4409308075214520e-02  1.4703086757011274e-02  1.5003403070522482e-02  1.5305671427535377e-02  1.5603917484659531e-02  1.5890496835317562e-02  1.6155826618244263e-02  1.6388182875805464e-02  1.6573635115126811e-02  1.6696196785442867e-02  1.6738254571490641e-02  1.6681298547631587e-02  1.6506940911961736e-02  1.6198260942204713e-02  1.5741691050017242e-02  1.5129733671803442e-02  1.4364253138279607e-02  1.3459257281227639e-02  1.2443378144828248e-02  1.1366067273470308e-02  1.0308794594035484e-02  9.3855127458688636e-03  8.7078494815929115e-03  8.3226572996695884e-03  8.1738561981566996e-03  8.1421461479231298e-03  8.1378339666959253e-03  8.1360285533055680e-03  8.1412063512876116e-03  8.1502192708498566e-03  1.2989311313229734e-02  1.2981092394332931e-02  8.1384544086973501e-03  8.1310810424501303e-03  8.1440144134075302e-03  8.1827185962654540e-03  8.2769141106690709e-03  8.5318460876126004e-03  9.0984591310793918e-03  1.0069036148442984e-02  1.1397153964661386e-02  1.2925698745120756e-02  1.4483484284123702e-02  1.5947872531266692e-02  1.7246573154437578e-02  1.8339229773255434e-02  1.9206390804383022e-02  1.9845543458820128e-02  2.0267737234753346e-02  2.0493091543773712e-02  2.0546568190222478e-02  2.0454983477689394e-02  2.0245100720847391e-02  1.9942336770126565e-02  1.9569842841828385e-02  1.9147922119501812e-02  1.8693783007230208e-02  1.8221583548593101e-02  1.7742682840855572e-02  1.7266006062053925e-02  1.6798444537766098e-02  1.6345237098646850e-02  1.5910303299040904e-02  1.5496517855177137e-02  1.5105927809360951e-02  1.4739920346480220e-02  1.4399351543007234e-02  1.4084646166637248e-02  1.3795877178997445e-02  1.3532831672944246e-02  1.3295068066209430e-02  1.3081967723464318e-02  1.2892782871980505e-02  1.2726681717268446e-02  1.2582791006791934e-02  1.2460235868336498e-02  1.2358176526946847e-02  1.2275841378514235e-02  1.2212555897510916e-02  1.2167766890370824e-02  1.2141061667821754e-02  1.2132181808275494e-02  1.2141031275264941e-02  1.2167678755389646e-02  1.2212354187635289e-02  1.2275439558647506e-02  1.2357454149475266e-02  1.2459034532831086e-02  1.2580909728288549e-02  1.2723872029444494e-02  1.2888744106936384e-02  1.3076343033376035e-02  1.3287441869969569e-02  1.3522729322493963e-02  1.3782767711634055e-02  1.4067949001562302e-02  1.4378447873506287e-02  1.4714169749212361e-02  1.5074690193507923e-02  1.5459180361241772e-02  1.5866311165162409e-02  1.6294126961359737e-02  1.6739878302243709e-02  1.7199803556079959e-02  1.7668852157521196e-02  1.8140349437347120e-02  1.8605615878720422e-02  1.9053572996785863e-02  1.9470392356884348e-02  1.9839267716041910e-02  2.0140400680914727e-02  2.0351269995629927e-02  2.0447192730373060e-02  2.0402112549540021e-02  2.0189587367661872e-02  1.9784272732691999e-02  1.9164670306704806e-02  1.8317461375914529e-02  1.7241218055523706e-02  1.5945817680350180e-02  1.4452418905185898e-02  1.2814746073577740e-02  1.1167656873717307e-02  9.7388230077537150e-03  8.7466160553548444e-03  8.2535120297975648e-03  8.1184305502822272e-03  8.1163346622805579e-03  8.1223782700907549e-03  8.1289595449688772e-03  8.1418848406389441e-03  1.2985030007026367e-02  1.2976550056524601e-02  8.1270394508077062e-03  8.1171973557492647e-03  8.1389988604519577e-03  8.2239384888057286e-03  8.5086058900126996e-03  9.2542785831859486e-03  1.0683355949652650e-02  1.2775790048726657e-02  1.5226012203805542e-02  1.7654234907866068e-02  1.9829379631504329e-02  2.1684237602671613e-02  2.3218605504419065e-02  2.4435713545760983e-02  2.5334837494445702e-02  2.5923603406723464e-02  2.6224100177493003e-02  2.6269891176128081e-02  2.6100168235039696e-02  2.5755175437695454e-02  2.5273445810730873e-02  2.4690177880177709e-02  2.4036271399486664e-02  2.3337859651604422e-02  2.2616275440671262e-02  2.1888365282424486e-02  2.1167033688845135e-02  2.0461895670381907e-02  1.9779937041007157e-02  1.9126114569572961e-02  1.8503859984828050e-02  1.7915477286785483e-02  1.7362439901676054e-02  1.6845603571801281e-02  1.6365354298316918e-02  1.5921710123714850e-02  1.5514392774719268e-02  1.5142881551521364e-02  1.4806458164430523e-02  1.4504248031827552e-02  1.4235261008577336e-02  1.3998432686300834e-02  1.3792666199022030e-02  1.3616873744311860e-02  1.3470016694143284e-02  1.3351143069849525e-02  1.3259421215337691e-02  1.3194168658071012e-02  1.3154875337740173e-02  1.3141220580464394e-02  1.3153083403736216e-02  1.3190545919831121e-02  1.3253889798696936e-02  1.3343585925911131e-02  1.3460277581508228e-02  1.3604757654817218e-02  1.3777940604556803e-02  1.3980830065902948e-02  1.4214483169435143e-02  1.4479972731583614e-02  1.4778348469996077e-02  1.5110598173110733e-02  1.5477609258318183e-02  1.5880130251388583e-02  1.6318730309502535e-02  1.6793752926995885e-02  1.7305257343485161e-02  1.7852938078313674e-02  1.8436009688651459e-02  1.9053040862559916e-02  1.9701720167387995e-02  2.0378536418541031e-02  2.1078361299430089e-02  2.1793932280052268e-02  2.2515251685110621e-02  2.3228943798994588e-02  2.3917645166753671e-02  2.4559539481487657e-02  2.5128178368840872e-02  2.5592737966896529e-02  2.5918831630161166e-02  2.6069928316724417e-02  2.6009359841852767e-02  2.5702951699971645e-02  2.5122480268556392e-02  2.4249676780031388e-02  2.3077522292653294e-02  2.1600922932140856e-02  1.9794743342911283e-02  1.7612302481315581e-02  1.5075355905133141e-02  1.2441483050259165e-02  1.0202957335448624e-02  8.7645093890972338e-03  8.1606161458000828e-03  8.0660670610038839e-03  8.0943167462339052e-03  8.1129497976841561e-03  8.1321627008748426e-03  1.2980530264804307e-02  1.2976374291563420e-02  8.1170814261341262e-03  8.1005491744865852e-03  8.1440433340374419e-03  8.4250934467769347e-03  9.3550518406061225e-03  1.1395733452618290e-02  1.4681360029119263e-02  1.8725164486038007e-02  2.2696612161036918e-02  2.6059719815539242e-02  2.8754236416651324e-02  3.0915680810692264e-02  3.2633986902331061e-02  3.3919635549638179e-02  3.4761481870765679e-02  3.5169287487579096e-02  3.5180756279161188e-02  3.4851602327552293e-02  3.4244526952306828e-02  3.342198693