<?xml version="1.0"?>
<VTKFile type="UnstructuredGrid"  version="0.1"  >
<UnstructuredGrid>
<Piece  NumberOfPoints="1089" NumberOfCells="2048">
<Points>
<DataArray  type="Float64"  NumberOfComponents="3"  format="ascii">0 0 0  0.03125 0 0  0.0625 0 0  0.09375 0 0  0.125 0 0  0.15625 0 0  0.1875 0 0  0.21875 0 0  0.25 0 0  0.28125 0 0  0.3125 0 0  0.34375 0 0  0.375 0 0  0.40625 0 0  0.4375 0 0  0.46875 0 0  0.5 0 0  0.53125 0 0  0.5625 0 0  0.59375 0 0  0.625 0 0  0.65625 0 0  0.6875 0 0  0.71875 0 0  0.75 0 0  0.78125 0 0  0.8125 0 0  0.84375 0 0  0.875 0 0  0.90625 0 0  0.9375 0 0  0.96875 0 0  1 0 0  0 0.03125 0  0.03125 0.03125 0  0.0625 0.03125 0  0.09375 0.03125 0  0.125 0.03125 0  0.15625 0.03125 0  0.1875 0.03125 0  0.21875 0.03125 0  0.25 0.03125 0  0.28125 0.03125 0  0.3125 0.03125 0  0.34375 0.03125 0  0.375 0.03125 0  0.40625 0.03125 0  0.4375 0.03125 0  0.46875 0.03125 0  0.5 0.03125 0  0.53125 0.03125 0  0.5625 0.03125 0  0.59375 0.03125 0  0.625 0.03125 0  0.65625 0.03125 0  0.6875 0.03125 0  0.71875 0.03125 0  0.75 0.03125 0  0.78125 0.03125 0  0.8125 0.03125 0  0.84375 0.03125 0  0.875 0.03125 0  0.90625 0.03125 0  0.9375 0.03125 0  0.96875 0.03125 0  1 0.03125 0  0 0.0625 0  0.03125 0.0625 0  0.0625 0.0625 0  0.09375 0.0625 0  0.125 0.0625 0  0.15625 0.0625 0  0.1875 0.0625 0  0.21875 0.0625 0  0.25 0.0625 0  0.28125 0.0625 0  0.3125 0.0625 0  0.34375 0.0625 0  0.375 0.0625 0  0.40625 0.0625 0  0.4375 0.0625 0  0.46875 0.0625 0  0.5 0.0625 0  0.53125 0.0625 0  0.5625 0.0625 0  0.59375 0.0625 0  0.625 0.0625 0  0.65625 0.0625 0  0.6875 0.0625 0  0.71875 0.0625 0  0.75 0.0625 0  0.78125 0.0625 0  0.8125 0.0625 0  0.84375 0.0625 0  0.875 0.0625 0  0.90625 0.0625 0  0.9375 0.0625 0  0.96875 0.0625 0  1 0.0625 0  0 0.09375 0  0.03125 0.09375 0  0.0625 0.09375 0  0.09375 0.09375 0  0.125 0.09375 0  0.15625 0.09375 0  0.1875 0.09375 0  0.21875 0.09375 0  0.25 0.09375 0  0.28125 0.09375 0  0.3125 0.09375 0  0.34375 0.09375 0  0.375 0.09375 0  0.40625 0.09375 0  0.4375 0.09375 0  0.46875 0.09375 0  0.5 0.09375 0  0.53125 0.09375 0  0.5625 0.09375 0  0.59375 0.09375 0  0.625 0.09375 0  0.65625 0.09375 0  0.6875 0.09375 0  0.71875 0.09375 0  0.75 0.09375 0  0.78125 0.09375 0  0.8125 0.09375 0  0.84375 0.09375 0  0.875 0.09375 0  0.90625 0.09375 0  0.9375 0.09375 0  0.96875 0.09375 0  1 0.09375 0  0 0.125 0  0.03125 0.125 0  0.0625 0.125 0  0.09375 0.125 0  0.125 0.125 0  0.15625 0.125 0  0.1875 0.125 0  0.21875 0.125 0  0.25 0.125 0  0.28125 0.125 0  0.3125 0.125 0  0.34375 0.125 0  0.375 0.125 0  0.40625 0.125 0  0.4375 0.125 0  0.46875 0.125 0  0.5 0.125 0  0.53125 0.125 0  0.5625 0.125 0  0.59375 0.125 0  0.625 0.125 0  0.65625 0.125 0  0.6875 0.125 0  0.71875 0.125 0  0.75 0.125 0  0.78125 0.125 0  0.8125 0.125 0  0.84375 0.125 0  0.875 0.125 0  0.90625 0.125 0  0.9375 0.125 0  0.96875 0.125 0  1 0.125 0  0 0.15625 0  0.03125 0.15625 0  0.0625 0.15625 0  0.09375 0.15625 0  0.125 0.15625 0  0.15625 0.15625 0  0.1875 0.15625 0  0.21875 0.15625 0  0.25 0.15625 0  0.28125 0.15625 0  0.3125 0.15625 0  0.34375 0.15625 0  0.375 0.15625 0  0.40625 0.15625 0  0.4375 0.15625 0  0.46875 0.15625 0  0.5 0.15625 0  0.53125 0.15625 0  0.5625 0.15625 0  0.59375 0.15625 0  0.625 0.15625 0  0.65625 0.15625 0  0.6875 0.15625 0  0.71875 0.15625 0  0.75 0.15625 0  0.78125 0.15625 0  0.8125 0.15625 0  0.84375 0.15625 0  0.875 0.15625 0  0.90625 0.15625 0  0.9375 0.15625 0  0.96875 0.15625 0  1 0.15625 0  0 0.1875 0  0.03125 0.1875 0  0.0625 0.1875 0  0.09375 0.1875 0  0.125 0.1875 0  0.15625 0.1875 0  0.1875 0.1875 0  0.21875 0.1875 0  0.25 0.1875 0  0.28125 0.1875 0  0.3125 0.1875 0  0.34375 0.1875 0  0.375 0.1875 0  0.40625 0.1875 0  0.4375 0.1875 0  0.46875 0.1875 0  0.5 0.1875 0  0.53125 0.1875 0  0.5625 0.1875 0  0.59375 0.1875 0  0.625 0.1875 0  0.65625 0.1875 0  0.6875 0.1875 0  0.71875 0.1875 0  0.75 0.1875 0  0.78125 0.1875 0  0.8125 0.1875 0  0.84375 0.1875 0  0.875 0.1875 0  0.90625 0.1875 0  0.9375 0.1875 0  0.96875 0.1875 0  1 0.1875 0  0 0.21875 0  0.03125 0.21875 0  0.0625 0.21875 0  0.09375 0.21875 0  0.125 0.21875 0  0.15625 0.21875 0  0.1875 0.21875 0  0.21875 0.21875 0  0.25 0.21875 0  0.28125 0.21875 0  0.3125 0.21875 0  0.34375 0.21875 0  0.375 0.21875 0  0.40625 0.21875 0  0.4375 0.21875 0  0.46875 0.21875 0  0.5 0.21875 0  0.53125 0.21875 0  0.5625 0.21875 0  0.59375 0.21875 0  0.625 0.21875 0  0.65625 0.21875 0  0.6875 0.21875 0  0.71875 0.21875 0  0.75 0.21875 0  0.78125 0.21875 0  0.8125 0.21875 0  0.84375 0.21875 0  0.875 0.21875 0  0.90625 0.21875 0  0.9375 0.21875 0  0.96875 0.21875 0  1 0.21875 0  0 0.25 0  0.03125 0.25 0  0.0625 0.25 0  0.09375 0.25 0  0.125 0.25 0  0.15625 0.25 0  0.1875 0.25 0  0.21875 0.25 0  0.25 0.25 0  0.28125 0.25 0  0.3125 0.25 0  0.34375 0.25 0  0.375 0.25 0  0.40625 0.25 0  0.4375 0.25 0  0.46875 0.25 0  0.5 0.25 0  0.53125 0.25 0  0.5625 0.25 0  0.59375 0.25 0  0.625 0.25 0  0.65625 0.25 0  0.6875 0.25 0  0.71875 0.25 0  0.75 0.25 0  0.78125 0.25 0  0.8125 0.25 0  0.84375 0.25 0  0.875 0.25 0  0.90625 0.25 0  0.9375 0.25 0  0.96875 0.25 0  1 0.25 0  0 0.28125 0  0.03125 0.28125 0  0.0625 0.28125 0  0.09375 0.28125 0  0.125 0.28125 0  0.15625 0.28125 0  0.1875 0.28125 0  0.21875 0.28125 0  0.25 0.28125 0  0.28125 0.28125 0  0.3125 0.28125 0  0.34375 0.28125 0  0.375 0.28125 0  0.40625 0.28125 0  0.4375 0.28125 0  0.46875 0.28125 0  0.5 0.28125 0  0.53125 0.28125 0  0.5625 0.28125 0  0.59375 0.28125 0  0.625 0.28125 0  0.65625 0.28125 0  0.6875 0.28125 0  0.71875 0.28125 0  0.75 0.28125 0  0.78125 0.28125 0  0.8125 0.28125 0  0.84375 0.28125 0  0.875 0.28125 0  0.90625 0.28125 0  0.9375 0.28125 0  0.96875 0.28125 0  1 0.28125 0  0 0.3125 0  0.03125 0.3125 0  0.0625 0.3125 0  0.09375 0.3125 0  0.125 0.3125 0  0.15625 0.3125 0  0.1875 0.3125 0  0.21875 0.3125 0  0.25 0.3125 0  0.28125 0.3125 0  0.3125 0.3125 0  0.34375 0.3125 0  0.375 0.3125 0  0.40625 0.3125 0  0.4375 0.3125 0  0.46875 0.3125 0  0.5 0.3125 0  0.53125 0.3125 0  0.5625 0.3125 0  0.59375 0.3125 0  0.625 0.3125 0  0.65625 0.3125 0  0.6875 0.3125 0  0.71875 0.3125 0  0.75 0.3125 0  0.78125 0.3125 0  0.8125 0.3125 0  0.84375 0.3125 0  0.875 0.3125 0  0.90625 0.3125 0  0.9375 0.3125 0  0.96875 0.3125 0  1 0.3125 0  0 0.34375 0  0.03125 0.34375 0  0.0625 0.34375 0  0.09375 0.34375 0  0.125 0.34375 0  0.15625 0.34375 0  0.1875 0.34375 0  0.21875 0.34375 0  0.25 0.34375 0  0.28125 0.34375 0  0.3125 0.34375 0  0.34375 0.34375 0  0.375 0.34375 0  0.40625 0.34375 0  0.4375 0.34375 0  0.46875 0.34375 0  0.5 0.34375 0  0.53125 0.34375 0  0.5625 0.34375 0  0.59375 0.34375 0  0.625 0.34375 0  0.65625 0.34375 0  0.6875 0.34375 0  0.71875 0.34375 0  0.75 0.34375 0  0.78125 0.34375 0  0.8125 0.34375 0  0.84375 0.34375 0  0.875 0.34375 0  0.90625 0.34375 0  0.9375 0.34375 0  0.96875 0.34375 0  1 0.34375 0  0 0.375 0  0.03125 0.375 0  0.0625 0.375 0  0.09375 0.375 0  0.125 0.375 0  0.15625 0.375 0  0.1875 0.375 0  0.21875 0.375 0  0.25 0.375 0  0.28125 0.375 0  0.3125 0.375 0  0.34375 0.375 0  0.375 0.375 0  0.40625 0.375 0  0.4375 0.375 0  0.46875 0.375 0  0.5 0.375 0  0.53125 0.375 0  0.5625 0.375 0  0.59375 0.375 0  0.625 0.375 0  0.65625 0.375 0  0.6875 0.375 0  0.71875 0.375 0  0.75 0.375 0  0.78125 0.375 0  0.8125 0.375 0  0.84375 0.375 0  0.875 0.375 0  0.90625 0.375 0  0.9375 0.375 0  0.96875 0.375 0  1 0.375 0  0 0.40625 0  0.03125 0.40625 0  0.0625 0.40625 0  0.09375 0.40625 0  0.125 0.40625 0  0.15625 0.40625 0  0.1875 0.40625 0  0.21875 0.40625 0  0.25 0.40625 0  0.28125 0.40625 0  0.3125 0.40625 0  0.34375 0.40625 0  0.375 0.40625 0  0.40625 0.40625 0  0.4375 0.40625 0  0.46875 0.40625 0  0.5 0.40625 0  0.53125 0.40625 0  0.5625 0.40625 0  0.59375 0.40625 0  0.625 0.40625 0  0.65625 0.40625 0  0.6875 0.40625 0  0.71875 0.40625 0  0.75 0.40625 0  0.78125 0.40625 0  0.8125 0.40625 0  0.84375 0.40625 0  0.875 0.40625 0  0.90625 0.40625 0  0.9375 0.40625 0  0.96875 0.40625 0  1 0.40625 0  0 0.4375 0  0.03125 0.4375 0  0.0625 0.4375 0  0.09375 0.4375 0  0.125 0.4375 0  0.15625 0.4375 0  0.1875 0.4375 0  0.21875 0.4375 0  0.25 0.4375 0  0.28125 0.4375 0  0.3125 0.4375 0  0.34375 0.4375 0  0.375 0.4375 0  0.40625 0.4375 0  0.4375 0.4375 0  0.46875 0.4375 0  0.5 0.4375 0  0.53125 0.4375 0  0.5625 0.4375 0  0.59375 0.4375 0  0.625 0.4375 0  0.65625 0.4375 0  0.6875 0.4375 0  0.71875 0.4375 0  0.75 0.4375 0  0.78125 0.4375 0  0.8125 0.4375 0  0.84375 0.4375 0  0.875 0.4375 0  0.90625 0.4375 0  0.9375 0.4375 0  0.96875 0.4375 0  1 0.4375 0  0 0.46875 0  0.03125 0.46875 0  0.0625 0.46875 0  0.09375 0.46875 0  0.125 0.46875 0  0.15625 0.46875 0  0.1875 0.46875 0  0.21875 0.46875 0  0.25 0.46875 0  0.28125 0.46875 0  0.3125 0.46875 0  0.34375 0.46875 0  0.375 0.46875 0  0.40625 0.46875 0  0.4375 0.46875 0  0.46875 0.46875 0  0.5 0.46875 0  0.53125 0.46875 0  0.5625 0.46875 0  0.59375 0.46875 0  0.625 0.46875 0  0.65625 0.46875 0  0.6875 0.46875 0  0.71875 0.46875 0  0.75 0.46875 0  0.78125 0.46875 0  0.8125 0.46875 0  0.84375 0.46875 0  0.875 0.46875 0  0.90625 0.46875 0  0.9375 0.46875 0  0.96875 0.46875 0  1 0.46875 0  0 0.5 0  0.03125 0.5 0  0.0625 0.5 0  0.09375 0.5 0  0.125 0.5 0  0.15625 0.5 0  0.1875 0.5 0  0.21875 0.5 0  0.25 0.5 0  0.28125 0.5 0  0.3125 0.5 0  0.34375 0.5 0  0.375 0.5 0  0.40625 0.5 0  0.4375 0.5 0  0.46875 0.5 0  0.5 0.5 0  0.53125 0.5 0  0.5625 0.5 0  0.59375 0.5 0  0.625 0.5 0  0.65625 0.5 0  0.6875 0.5 0  0.71875 0.5 0  0.75 0.5 0  0.78125 0.5 0  0.8125 0.5 0  0.84375 0.5 0  0.875 0.5 0  0.90625 0.5 0  0.9375 0.5 0  0.96875 0.5 0  1 0.5 0  0 0.53125 0  0.03125 0.53125 0  0.0625 0.53125 0  0.09375 0.53125 0  0.125 0.53125 0  0.15625 0.53125 0  0.1875 0.53125 0  0.21875 0.53125 0  0.25 0.53125 0  0.28125 0.53125 0  0.3125 0.53125 0  0.34375 0.53125 0  0.375 0.53125 0  0.40625 0.53125 0  0.4375 0.53125 0  0.46875 0.53125 0  0.5 0.53125 0  0.53125 0.53125 0  0.5625 0.53125 0  0.59375 0.53125 0  0.625 0.53125 0  0.65625 0.53125 0  0.6875 0.53125 0  0.71875 0.53125 0  0.75 0.53125 0  0.78125 0.531
[...]
<PointData  Scalars="ControlVisualisation"> 
<DataArray  type="Float64"  Name="ControlVisualisation"  format="ascii">6.3888699875460109e-01  6.7502658002882010e-01  6.2933910486697286e-01  5.9014897521107246e-01  5.9732478627352670e-01  5.7545001456074385e-01  5.5420867851240152e-01  5.2072470338648957e-01  4.8891230780470746e-01  4.5434896238803757e-01  4.2133719090815608e-01  3.9061937323162133e-01  3.6521121812472057e-01  3.4276317799136841e-01  3.2761668888299994e-01  3.1804398298753705e-01  3.1433934538708702e-01  3.1734177481270992e-01  3.2624647286141706e-01  3.4336232749992118e-01  3.6326272199364834e-01  3.9071223785580933e-01  4.1980816918972996e-01  4.5250069123694475e-01  4.8700957813144308e-01  5.2150591244289324e-01  5.5124713644878676e-01  5.7425681157816277e-01  5.9198590604808521e-01  5.8896811517922609e-01  6.2675168728392927e-01  6.7568598102750355e-01  6.2999348278872447e-01  6.8093566992651189e-01  6.0761837836692978e-01  6.0520732345650852e-01  6.8632718559866823e-01  5.8079885618964855e-01  5.9844253034149164e-01  5.5885274180577671e-01  5.3493812950875352e-01  4.9119162585522752e-01  4.5693828992488533e-01  4.1856616290771148e-01  3.8528159165506876e-01  3.5067326962358208e-01  3.2880577718651760e-01  3.0715051130209542e-01  2.9505204529125251e-01  2.9176178274925080e-01  2.9339866099151912e-01  3.0841059981287083e-01  3.2175712138291140e-01  3.5267086459747415e-01  3.7837786296931486e-01  4.1683221996888614e-01  4.5299917363539211e-01  4.9105520264205604e-01  5.2556456508227811e-01  5.6139145921186173e-01  5.8859893101455163e-01  5.8572650270449667e-01  6.6958070200316844e-01  6.1145000911123737e-01  6.1286831673218223e-01  6.8056380412899631e-01  6.4947275363530332e-01  6.2330894872974874e-01  7.9908526413549130e-01  5.6147910799399225e-01  6.5585900343547943e-01  5.9455976613954609e-01  5.7730118786171558e-01  5.3267438572957482e-01  4.9868615735756661e-01  4.4996927409498710e-01  4.1217905249671527e-01  3.7159091710060022e-01  3.4139701254398763e-01  3.1087804275303821e-01  2.9263528649366294e-01  2.8039861739155730e-01  2.7341365050681210e-01  2.8029338148228522e-01  2.8611454276545528e-01  3.1235479387095000e-01  3.3326325511971622e-01  3.7095202465472787e-01  4.0417950223444876e-01  4.4756389691681053e-01  4.8868507214922347e-01  5.3393725874798337e-01  5.6623630073223230e-01  5.9668189645398351e-01  6.3931655841865087e-01  5.7205385169005540e-01  7.7776017710093093e-01  6.2883095637536346e-01  6.4610764578183677e-01  6.3073152195593241e-01  7.2246147622430812e-01  5.9226584400911975e-01  6.5873167474525129e-01  6.0656035943812259e-01  5.8417828491424217e-01  5.5618593428863916e-01  5.2949680591620307e-01  4.8750976342879332e-01  4.5414316364152102e-01  4.1310217294740026e-01  3.8099865562022150e-01  3.4799951226176307e-01  3.2501917891108356e-01  3.0423339821753365e-01  2.9247797237416479e-01  2.8939790101850205e-01  2.9025647243704217e-01  3.0573426874616300e-01  3.1890726980698625e-01  3.4867797506404563e-01  3.7666304140980411e-01  4.1426570618023845e-01  4.4948087419967048e-01  4.8907055073255762e-01  5.2306944437413705e-01  5.6024675882799091e-01  5.7653441004535289e-01  6.1086338486037006e-01  6.4615769679259305e-01  5.9961972353347814e-01  7.1056928936213670e-01  6.2918530213751667e-01  6.6149940178403921e-01  6.5419236463656161e-01  7.0678117919747341e-01  6.3985834488482329e-01  6.1573438298182659e-01  5.8850902417224649e-01  5.6551818033096934e-01  5.2776529126423877e-01  4.8618626218326988e-01  4.4230198969930240e-01  4.0180219195476780e-01  3.6266804598040064e-01  3.2980307123120345e-01  3.0068633584302379e-01  2.8223480387615246e-01  2.6753281015023594e-01  2.6339022287443070e-01  2.6674305999345044e-01  2.7836696560435353e-01  3.0058712451317460e-01  3.2532323643198813e-01  3.6080877263505146e-01  3.9971801238236687e-01  4.4010429328232598e-01  4.8475729645538296e-01  5.2663475822383332e-01  5.6074905665342900e-01  5.8981334250694695e-01  6.1274391398054018e-01  6.3812116529666896e-01  7.0050247586550440e-01  6.5500598883506589e-01  6.5827641792687963e-01  6.7416440093281305e-01  6.9994840200347863e-01  6.9866944128685216e-01  6.4010091308313954e-01  6.2936580537421760e-01  5.9056757476210719e-01  5.6840480149731487e-01  5.2568958369855878e-01  4.8098348081132503e-01  4.3380481673630261e-01  3.8769066186685058e-01  3.4534728189673347e-01  3.1000238752648207e-01  2.7926167123182855e-01  2.5624825530746947e-01  2.4354776395663497e-01  2.3648818199238753e-01  2.4192362572831577e-01  2.5349131784748175e-01  2.7644814643073079e-01  3.0699889541806374e-01  3.4324498388439129e-01  3.8512865501367205e-01  4.3425743029363334e-01  4.7663212799561194e-01  5.2694923372638702e-01  5.6459289890520470e-01  5.9254696784046446e-01  6.2475060045624697e-01  6.4060400618873758e-01  6.9641238612780654e-01  6.9660828805833563e-01  6.7284895038554815e-01  6.9113175329631171e-01  7.1358907398868510e-01  7.1381154228082688e-01  6.6681004485036455e-01  6.3619110099809839e-01  6.1151678218959926e-01  5.6980127057748975e-01  5.3130573699474348e-01  4.7308378142846541e-01  4.2048980113891948e-01  3.7030650085811878e-01  3.2095405254866405e-01  2.8033846947584912e-01  2.4835926525780580e-01  2.2330799824203643e-01  2.0758409663140928e-01  2.0240430773293022e-01  2.0559730591512795e-01  2.2086272046809502e-01  2.4338736165819178e-01  2.7745876991020424e-01  3.1793752820642945e-01  3.6761067048793600e-01  4.1561119372503375e-01  4.7592004001725974e-01  5.2385557097747792e-01  5.7320598672168022e-01  6.0368341668318892e-01  6.3931898158172817e-01  6.6290110236650679e-01  7.1289265207028452e-01  7.1262189930286068e-01  6.8947546087025013e-01  7.0477888004784517e-01  7.2741772260664228e-01  7.3569269682586125e-01  6.7544050262824107e-01  6.5698980624805137e-01  6.1048731218151497e-01  5.8274475059112807e-01  5.2356810705302159e-01  4.7070718929407979e-01  4.0470629237885919e-01  3.4885011128187138e-01  2.9925770633898963e-01  2.5335459291290452e-01  2.1916555350442213e-01  1.9399483769162348e-01  1.7822881479174513e-01  1.7185618754489532e-01  1.7634665177425812e-01  1.9063228387915579e-01  2.1619078689829899e-01  2.4996774119521845e-01  2.9469891742721271e-01  3.4404976026163681e-01  4.0748251772361266e-01  4.6175869167596306e-01  5.2836109033588785e-01  5.7403997040745769e-01  6.1392874682013987e-01  6.5174615490410925e-01  6.7541082813826170e-01  7.3315006618930922e-01  7.2691752502642315e-01  7.0323856885098879e-01  7.1688813041413246e-01  7.4367426832934447e-01  7.4776999056087567e-01  6.9078464757541658e-01  6.6090199463740029e-01  6.2455119663577219e-01  5.7719208549379253e-01  5.2687341757641126e-01  4.5499605838415746e-01  3.9361712980601360e-01  3.2650203772469727e-01  2.7432069479991916e-01  2.2810430867480425e-01  1.9100362371720922e-01  1.6517444435795672e-01  1.4992385090464869e-01  1.4429768617920635e-01  1.4803392538069673e-01  1.6300774459335260e-01  1.8823935498339317e-01  2.2395331608146968e-01  2.7057741902769694e-01  3.2577539007342637e-01  3.8618856088864678e-01  4.5875106329772686e-01  5.1922935489222399e-01  5.8165088129340992e-01  6.1725013157483211e-01  6.6202935140120434e-01  6.8793200844378644e-01  7.4670551651859951e-01  7.4247719982930038e-01  7.1585276721127356e-01  7.2854730067858731e-01  7.5831490844244553e-01  7.5923486898169035e-01  7.0298823331892490e-01  6.7067478169285843e-01  6.2488391641711716e-01  5.8415876523028032e-01  5.1689560979555704e-01  4.4904961162866802e-01  3.7216126417892775e-01  3.0921033440474072e-01  2.4723566508138758e-01  2.0115676697531404e-01  1.6341033881142258e-01  1.3732098610240517e-01  1.2186252074493828e-01  1.1676735419541388e-01  1.2069637804225188e-01  1.3519157364122775e-01  1.6005774287536711e-01  1.9838592803179372e-01  2.4490712946627319e-01  3.0479600726081768e-01  3.7208045647452670e-01  4.4490508240333071e-01  5.1954635611329314e-01  5.7796977773342006e-01  6.2575305294417805e-01  6.6818766702319832e-01  6.9974210073202159e-01  7.6001210431846788e-01  7.5501786518480407e-01  7.2819254147411316e-01  7.3992724611764815e-01  7.6742078923815649e-01  7.7539603317076633e-01  7.0705430777806455e-01  6.8125671951610012e-01  6.2827708911337787e-01  5.8069004897417142e-01  5.1530733603200907e-01  4.3508478466656525e-01  3.5942425853076315e-01  2.8543613849448585e-01  2.2660964095576011e-01  1.7317116915696065e-01  1.3662837992145127e-01  1.1115668100740161e-01  9.6063592033182849e-02  9.1285094567495478e-02  9.5100394138621785e-02  1.0828896559734674e-01  1.3473645380012952e-01  1.7062846049851171e-01  2.2456174799201151e-01  2.8289998757744256e-01  3.5791285281323615e-01  4.3481454074319004e-01  5.1272762022485763e-01  5.8049892274064752e-01  6.2606960635769293e-01  6.7786294193425956e-01  7.0725673784857002e-01  7.7282014196812665e-01  7.6733485285999714e-01  7.3824660252340490e-01  7.4856735488043324e-01  7.8059540156641372e-01  7.8157284629123658e-01  7.1962566998128996e-01  6.8138370483388211e-01  6.3401157700153932e-01  5.7907305105663565e-01  5.0836479369824639e-01  4.2752128039014714e-01  3.4326100193660930e-01  2.6919617519678130e-01  2.0212222049777412e-01  1.5179933818264268e-01  1.1107405894050693e-01  8.7199877767411810e-02  7.3733235167115829e-02  6.8196046518556874e-02  7.2624638914377204e-02  8.4927602925937040e-02  1.0984378867242836e-01  1.4970736967482781e-01  2.0104512594515458e-01  2.6937654468156053e-01  3.4075530682346206e-01  4.2755268198969820e-01  5.0725997181973048e-01  5.7807336252519181e-01  6.3073273219097403e-01  6.8003184432045527e-01  7.1867617170406461e-01  7.7970910931904869e-01  7.7994325343357707e-01  7.4624464899004428e-01  7.5662310348079020e-01  7.8658897803460359e-01  7.9306398235711761e-01  7.2228983201996433e-01  6.8887173100880272e-01  6.3213996527707650e-01  5.7981061516468324e-01  5.0334349106341658e-01  4.1785882273785763e-01  3.3250487808766588e-01  2.5327591190298332e-01  1.8500021244094489e-01  1.2954335306842410e-01  9.1457828347775522e-02  6.6186671480771966e-02  5.4352797063695737e-02  5.0161112170770142e-02  5.2655909651903296e-02  6.6188603474708743e-02  8.9539127849063066e-02  1.2928467904840438e-01  1.8496562613708686e-01  2.5241032568583710e-01  3.3320480154449900e-01  4.1568721245660334e-01  5.0480880910754478e-01  5.7648832104469427e-01  6.3089847634405405e-01  6.8714268123034594e-01  7.2075012705063535e-01  7.9255284370370938e-01  7.8373386386990829e-01  7.5486560307984329e-01  7.6167934427869277e-01  7.9485616405461978e-01  7.9773188141559814e-01  7.2869813912996018e-01  6.9034444754712965e-01  6.3478603943213052e-01  5.7623691472508565e-01  5.0117505051311528e-01  4.1141601240960762e-01  3.2345245784954846e-01  2.4020936273375476e-01  1.7023704151580549e-01  1.1321093244794687e-01  7.4917294711517354e-02  5.0852539272124242e-02  3.8631284874444990e-02  3.5562044028480788e-02  3.8675881617868724e-02  4.9587489426863418e-02  7.4792697513466178e-02  1.1417802657379303e-01  1.7056305110973721e-01  2.4131268909092973e-01  3.2212831385125834e-01  4.1255877620331466e-01  4.9821010357665890e-01  5.7718921617117946e-01  6.3256320322973847e-01  6.8773628355980110e-01  7.2834974175461376e-01  7.9486179728872119e-01  7.9335772018836004e-01  7.5992476407662557e-01  7.6530159751946980e-01  7.9845817782800099e-01  8.0257759206522405e-01  7.3276392008505542e-01  6.9178726789453293e-01  6.3509784284068393e-01  5.7690556628916434e-01  4.9682761761873090e-01  4.0843303429472055e-01  3.1479758243549666e-01  2.3326595265254055e-01  1.5862390963337980e-01  1.0231691176179657e-01  6.1739813032062676e-02  3.9897208238845031e-02  2.8082272422130336e-02  2.5230088048189964e-02  2.7796806744134650e-02  3.9960944416600863e-02  6.1966482355846828e-02  1.0428471964585484e-01  1.5993941656188604e-01  2.3290663024850122e-01  3.1600266418807388e-01  4.0642902094250172e-01  4.9784000687978797e-01  5.7480719158239335e-01  6.3398927689985485e-01  6.9206817307337787e-01  7.2867860203596801e-01  8.0103420672262848e-01  7.9613369778347987e-01  7.6413534775905034e-01  7.6696095743341119e-01  8.0136269368273316e-01  8.0501530945230326e-01  7.3416235558343734e-01  6.9531592000379239e-01  6.3417637938362026e-01  5.7653624809685200e-01  4.9605692280166791e-01  4.0478539146614012e-01  3.1294977514439853e-01  2.2488760345776410e-01  1.5415447769932200e-01  9.4246042480092884e-02  5.5878569147658902e-02  3.2323601219311854e-02  2.1849548428908475e-02  1.8515083687035000e-02  2.2087603807837017e-02  3.2190804570380968e-02  5.7598847230371800e-02  9.4611831743770844e-02  1.5622246908080495e-01  2.2624580133218719e-01  3.1239775842134376e-01  4.0388269166081048e-01  4.9495626660118808e-01  5.7697751135525166e-01  6.3277391530661364e-01  6.9323345915284051e-01  7.3311608638748171e-01  8.0103523311733194e-01  7.9960733913748305e-01  7.6616536463531182e-01  7.6738658860847109e-01  8.0196704212392733e-01  8.0557073734371032e-01  7.3493446538741591e-01  6.9463738342082471e-01  6.3693208970842674e-01  5.7462435408429258e-01  4.9758078321413413e-01  4.0245868354242648e-01  3.1293465416290245e-01  2.2373792170522910e-01  1.5034578199491522e-01  9.3194682243235974e-02  5.2840844398135828e-02  3.0015305882544877e-02  1.9428229836981073e-02  1.5868350340074153e-02  1.9634446385249568e-02  3.0299643220985953e-02  5.3750653753113428e-02  9.5485071875166805e-02  1.5057363427236475e-01  2.2603151835639362e-01  3.1035640989600083e-01  4.0310470210129745e-01  4.9556159020218049e-01  5.7385108335581247e-01  6.3696656734221879e-01  6.9123841796322794e-01  7.3382978936228827e-01  8.0330745672862791e-01  7.9956576308594407e-01  7.6696743600403283e-01  7.6666460834776073e-01  7.9980110692076167e-01  8.0482559289537303e-01  7.3450555806175566e-01  6.9457814436718934e-01  6.3528197731635150e-01  5.7763969589145359e-01  4.9617828063201919e-01  4.0667166851690262e-01  3.1042084455276153e-01  2.2997335400424210e-01  1.5095962645051003e-01  9.5461050366158567e-02  5.4684673426214109e-02  3.2242874563625082e-02  2.0512179189158306e-02  1.7944156496510807e-02  2.0055087194379623e-02  3.2872413781374218e-02  5.5732461601698244e-02  9.6653030520713251e-02  1.5462675589444103e-01  2.2640210790207987e-01  3.1165082584512999e-01  4.0476617060209419e-01  4.9500787896232001e-01  5.7517854026659732e-01  6.3368597965256568e-01  6.9502324123837167e-01  7.3104387306235863e-01  8.0289584500946520e-01  7.9859126733672503e-01  7.6631143675994817e-01  7.6411070125791491e-01  7.9674873270352897e-01  8.0176733942081413e-01  7.3182419545721489e-01  6.9376699322156277e-01  6.3573746630851058e-01  5.7680387829287905e-01  4.9978367802160117e-01  4.0903536180340894e-01  3.1772186446580508e-01  2.3079125789726154e-01  1.6176266385582974e-01  9.9973691209932145e-02  6.2796786004974639e-02  3.7542054547799394e-02  2.6728724407697330e-02  2.2679967412359059e-02  2.6857357035797183e-02  3.7426800707958799e-02  6.3370052411316907e-02  1.0242794772060379e-01  1.6091847877973020e-01  2.3223938265611266e-01  3.1589900328515830e-01  4.0609092145831044e-01  4.9763946242022716e-01  5.7491348907681750e-01  6.3462429896502881e-01  6.9057407243243007e-01  7.3240153012040565e-01  7.9847307397726719e-01  7.9724162219045691e-01  7.6377244222341478e-01  7.5946676488997367e-01  7.9432529674861518e-01  7.9677995403020585e-01  7.2937334077380489e-01  6.8957505511257489e-01  6.3645116713137295e-01  5.7779635654650352e-01  5.0244825736596876e-01  4.1345720736053776e-01  3.2514054076857590e-01  2.4190391891266394e-01  1.6954565556393852e-01  1.1419051003685360e-01  7.2295454565932768e-02  4.9464154362388046e-02  3.6035544788137377e-02  3.3002503142710207e-02  3.6065470146990602e-02  4.9240569022696690e-02  7.3175454475136764e-02  1.1473829189172950e-01  1.6950254262792083e-01  2.4045288795404046e-01  3.2357284920642382e-01  4.1126810495300770e-01  4.9936554019059304e-01  5.7679392345606761e-01  6.3226488681420712e-01  6.9150546203294849e-01  7.2552797199439767e-01  7.9679419838854348e-01  7.9028863179361852e-01  7.6038301717404977e-01  7.5463244567917154e-01  7.8567673839502872e-01  7.9133984630732046e-01  7.2366553235575271e-01  6.8965598787705118e-01  6.3113881359623514e-01  5.8355736253653245e-01  5.0287603462066299e-01  4.2316026204398682e-01  3.3201074568942895e-01  2.5484643191749878e-01  1.8497516097839384e-01  1.2954981708794983e-01  8.9623471938842333e-02  6.3932309559756803e-02  5.1275325196481827e-02  4.7008115248676208e-02  5.1507348832615429e-02  6.4153695650207621e-02  8.9352502639391193e-02  1.2894684823368924e-01  1.8478208873174351e-01  2.5245507606658202e-01  3.3079651552940681e-01  4.2033332128910739e-01  5.0096056229580077e-01  5.7918356747425204e-01  6.3245874375533540e-01  6.8516309628189431e-01  7.2435447995641289e-01  7.8621512339444144e-01  7.8756911732375656e-01  7.5385868164224368e-01  7.4684729429466512e-01  7.7855414059444261e-01  7.8356748041165747e-01  7.1723147341517912e-01  6.8309858326877992e-01  6.3427919987677395e-01  5.7760411107238929e-01  5.1652532640572479e-01  4.2339395795364737e-01  3.5094619742823885e-01  2.6609508774206581e-01  2.0451689225248415e-01  1.4908977204254734e-01  1.1117525787873364e-01  8.4263675794633675e-02  7.0480959935412382e-02  6.5897813798477728e-02  7.1313723944570723e-02  8.4310138972474996e-02  1.0979896778505514e-01  1.4817873575352278e-01  2.0149732189483652e-01  2.6836045992510255e-01  3.4313114071192219e-01  4.2555517301598267e-01  5.1098191121378433e-01  5.7585712924047960e-01  6.3314296086419364e-01  6.8195708248999454e-01  7.1472475429733362e-01  7.8215756543178683e-01  7.7452181776007145e-01  7.4777861552562741e-01  7.3792437773671649e-01  7.6809332909559447e-01  7.7346688170272082e-01  7.0903589464211503e-01  6.7853236673514605e-01  6.2952185822544549e-01  5.8414879225582583e-01  5.1298412394335180e-01  4.4383065372640812e-01  3.5384140220901666e-01  2.9329114767149278e-01  2.2119938148632926e-01  1.7501699544306376e-01  1.3349344328066101e-01  1.0994626211442335e-01  9.3447056118343169e-02  9.0132375681454158e-02  9.3201914001390454e-02  1.0951913213744549e-01  1.3274351881822982e-01  1.7281344017007300e-01  2.2238314268452192e-01  2.8409845142634627e-01  3.5909373452655791e-01  4.3515879196176377e-01  5.1241725481968481e-01  5.8251644437299543e-01  6.2606273421353853e-01  6.7779520109455071e-01  7.0835896094243445e-01  7.7012757636831419e-01  7.6628763381345755e-01  7.3811242184552062e-01  7.2771632447064039e-01  7.5487619426435748e-01  7.6264948569761026e-01  7.0007009695425837e-01  6.7118446323294711e-01  6.2533659883872628e-01  5.8346826241660954e-01  5.2087840207583780e-01  4.4887952192312558e-01  3.7885051632610683e-01  3.0299512956523245e-01  2.5216520254035829e-01  1.9700010624979367e-01  1.6371727050929508e-01  1.3448562903172245e-01  1.2125848460687477e-01  1.1509131243532680e-01  1.2129468511943409e-01  1.3427989667127499e-01  1.6136872194708496e-01  1.9721568821604576e-01  2.4615286305998182e-01  3.0603046595881461e-01  3.7081552190025435e-01  4.4883507498140052e-01  5.1788565509028150e-01  5.7852811774703305e-01  6.2711298180012476e-01  6.6851600458176885e-01  6.9925323891320090e-01  7.5839420729542606e-01  7.5544681202978203e-01  7.2700416172375482e-01  7.1498640398339786e-01  7.4549294103004804e-01  7.4604874770335261e-01  6.9153437650028238e-01  6.6093687778815169e-01  6.2288766119660943e-01  5.7923509709180232e-01  5.2783824836336102e-01  4.5679580018979726e-01  3.9362373361054837e-01  3.2963260131224520e-01  2.7133093866354718e-01  2.2714829877761858e-01  1.8911596193278446e-01  1.6552783968221083e-01  1.4860834746056342e-01  1.4309651163953385e-01  1.4848487668135091e-01  1.6358189165777046e-01  1.8851556032882594e-01  2.2425958379274261e-01  2.7278388542660525e-01  3.2391264518542934e-01  3.9301912630113345e-01  4.5161830348002052e-01  5.2553839956045623e-01  5.7870194138996023e-01  6.1724260629861671e-01  6.6421913219868389e-01  6.8706083748043867e-01  7.4599392995604474e-01  7.4104896393155850e-01  7.1549841566035421e-01  7.0338124432639992e-01  7.2747634661291616e-01  7.3688702101638104e-01  6.755169302