<?xml version="1.0"?>
<VTKFile type="UnstructuredGrid"  version="0.1"  >
<UnstructuredGrid>
<Piece  NumberOfPoints="1089" NumberOfCells="2048">
<Points>
<DataArray  type="Float64"  NumberOfComponents="3"  format="ascii">0 0 0  0.03125 0 0  0.0625 0 0  0.09375 0 0  0.125 0 0  0.15625 0 0  0.1875 0 0  0.21875 0 0  0.25 0 0  0.28125 0 0  0.3125 0 0  0.34375 0 0  0.375 0 0  0.40625 0 0  0.4375 0 0  0.46875 0 0  0.5 0 0  0.53125 0 0  0.5625 0 0  0.59375 0 0  0.625 0 0  0.65625 0 0  0.6875 0 0  0.71875 0 0  0.75 0 0  0.78125 0 0  0.8125 0 0  0.84375 0 0  0.875 0 0  0.90625 0 0  0.9375 0 0  0.96875 0 0  1 0 0  0 0.03125 0  0.03125 0.03125 0  0.0625 0.03125 0  0.09375 0.03125 0  0.125 0.03125 0  0.15625 0.03125 0  0.1875 0.03125 0  0.21875 0.03125 0  0.25 0.03125 0  0.28125 0.03125 0  0.3125 0.03125 0  0.34375 0.03125 0  0.375 0.03125 0  0.40625 0.03125 0  0.4375 0.03125 0  0.46875 0.03125 0  0.5 0.03125 0  0.53125 0.03125 0  0.5625 0.03125 0  0.59375 0.03125 0  0.625 0.03125 0  0.65625 0.03125 0  0.6875 0.03125 0  0.71875 0.03125 0  0.75 0.03125 0  0.78125 0.03125 0  0.8125 0.03125 0  0.84375 0.03125 0  0.875 0.03125 0  0.90625 0.03125 0  0.9375 0.03125 0  0.96875 0.03125 0  1 0.03125 0  0 0.0625 0  0.03125 0.0625 0  0.0625 0.0625 0  0.09375 0.0625 0  0.125 0.0625 0  0.15625 0.0625 0  0.1875 0.0625 0  0.21875 0.0625 0  0.25 0.0625 0  0.28125 0.0625 0  0.3125 0.0625 0  0.34375 0.0625 0  0.375 0.0625 0  0.40625 0.0625 0  0.4375 0.0625 0  0.46875 0.0625 0  0.5 0.0625 0  0.53125 0.0625 0  0.5625 0.0625 0  0.59375 0.0625 0  0.625 0.0625 0  0.65625 0.0625 0  0.6875 0.0625 0  0.71875 0.0625 0  0.75 0.0625 0  0.78125 0.0625 0  0.8125 0.0625 0  0.84375 0.0625 0  0.875 0.0625 0  0.90625 0.0625 0  0.9375 0.0625 0  0.96875 0.0625 0  1 0.0625 0  0 0.09375 0  0.03125 0.09375 0  0.0625 0.09375 0  0.09375 0.09375 0  0.125 0.09375 0  0.15625 0.09375 0  0.1875 0.09375 0  0.21875 0.09375 0  0.25 0.09375 0  0.28125 0.09375 0  0.3125 0.09375 0  0.34375 0.09375 0  0.375 0.09375 0  0.40625 0.09375 0  0.4375 0.09375 0  0.46875 0.09375 0  0.5 0.09375 0  0.53125 0.09375 0  0.5625 0.09375 0  0.59375 0.09375 0  0.625 0.09375 0  0.65625 0.09375 0  0.6875 0.09375 0  0.71875 0.09375 0  0.75 0.09375 0  0.78125 0.09375 0  0.8125 0.09375 0  0.84375 0.09375 0  0.875 0.09375 0  0.90625 0.09375 0  0.9375 0.09375 0  0.96875 0.09375 0  1 0.09375 0  0 0.125 0  0.03125 0.125 0  0.0625 0.125 0  0.09375 0.125 0  0.125 0.125 0  0.15625 0.125 0  0.1875 0.125 0  0.21875 0.125 0  0.25 0.125 0  0.28125 0.125 0  0.3125 0.125 0  0.34375 0.125 0  0.375 0.125 0  0.40625 0.125 0  0.4375 0.125 0  0.46875 0.125 0  0.5 0.125 0  0.53125 0.125 0  0.5625 0.125 0  0.59375 0.125 0  0.625 0.125 0  0.65625 0.125 0  0.6875 0.125 0  0.71875 0.125 0  0.75 0.125 0  0.78125 0.125 0  0.8125 0.125 0  0.84375 0.125 0  0.875 0.125 0  0.90625 0.125 0  0.9375 0.125 0  0.96875 0.125 0  1 0.125 0  0 0.15625 0  0.03125 0.15625 0  0.0625 0.15625 0  0.09375 0.15625 0  0.125 0.15625 0  0.15625 0.15625 0  0.1875 0.15625 0  0.21875 0.15625 0  0.25 0.15625 0  0.28125 0.15625 0  0.3125 0.15625 0  0.34375 0.15625 0  0.375 0.15625 0  0.40625 0.15625 0  0.4375 0.15625 0  0.46875 0.15625 0  0.5 0.15625 0  0.53125 0.15625 0  0.5625 0.15625 0  0.59375 0.15625 0  0.625 0.15625 0  0.65625 0.15625 0  0.6875 0.15625 0  0.71875 0.15625 0  0.75 0.15625 0  0.78125 0.15625 0  0.8125 0.15625 0  0.84375 0.15625 0  0.875 0.15625 0  0.90625 0.15625 0  0.9375 0.15625 0  0.96875 0.15625 0  1 0.15625 0  0 0.1875 0  0.03125 0.1875 0  0.0625 0.1875 0  0.09375 0.1875 0  0.125 0.1875 0  0.15625 0.1875 0  0.1875 0.1875 0  0.21875 0.1875 0  0.25 0.1875 0  0.28125 0.1875 0  0.3125 0.1875 0  0.34375 0.1875 0  0.375 0.1875 0  0.40625 0.1875 0  0.4375 0.1875 0  0.46875 0.1875 0  0.5 0.1875 0  0.53125 0.1875 0  0.5625 0.1875 0  0.59375 0.1875 0  0.625 0.1875 0  0.65625 0.1875 0  0.6875 0.1875 0  0.71875 0.1875 0  0.75 0.1875 0  0.78125 0.1875 0  0.8125 0.1875 0  0.84375 0.1875 0  0.875 0.1875 0  0.90625 0.1875 0  0.9375 0.1875 0  0.96875 0.1875 0  1 0.1875 0  0 0.21875 0  0.03125 0.21875 0  0.0625 0.21875 0  0.09375 0.21875 0  0.125 0.21875 0  0.15625 0.21875 0  0.1875 0.21875 0  0.21875 0.21875 0  0.25 0.21875 0  0.28125 0.21875 0  0.3125 0.21875 0  0.34375 0.21875 0  0.375 0.21875 0  0.40625 0.21875 0  0.4375 0.21875 0  0.46875 0.21875 0  0.5 0.21875 0  0.53125 0.21875 0  0.5625 0.21875 0  0.59375 0.21875 0  0.625 0.21875 0  0.65625 0.21875 0  0.6875 0.21875 0  0.71875 0.21875 0  0.75 0.21875 0  0.78125 0.21875 0  0.8125 0.21875 0  0.84375 0.21875 0  0.875 0.21875 0  0.90625 0.21875 0  0.9375 0.21875 0  0.96875 0.21875 0  1 0.21875 0  0 0.25 0  0.03125 0.25 0  0.0625 0.25 0  0.09375 0.25 0  0.125 0.25 0  0.15625 0.25 0  0.1875 0.25 0  0.21875 0.25 0  0.25 0.25 0  0.28125 0.25 0  0.3125 0.25 0  0.34375 0.25 0  0.375 0.25 0  0.40625 0.25 0  0.4375 0.25 0  0.46875 0.25 0  0.5 0.25 0  0.53125 0.25 0  0.5625 0.25 0  0.59375 0.25 0  0.625 0.25 0  0.65625 0.25 0  0.6875 0.25 0  0.71875 0.25 0  0.75 0.25 0  0.78125 0.25 0  0.8125 0.25 0  0.84375 0.25 0  0.875 0.25 0  0.90625 0.25 0  0.9375 0.25 0  0.96875 0.25 0  1 0.25 0  0 0.28125 0  0.03125 0.28125 0  0.0625 0.28125 0  0.09375 0.28125 0  0.125 0.28125 0  0.15625 0.28125 0  0.1875 0.28125 0  0.21875 0.28125 0  0.25 0.28125 0  0.28125 0.28125 0  0.3125 0.28125 0  0.34375 0.28125 0  0.375 0.28125 0  0.40625 0.28125 0  0.4375 0.28125 0  0.46875 0.28125 0  0.5 0.28125 0  0.53125 0.28125 0  0.5625 0.28125 0  0.59375 0.28125 0  0.625 0.28125 0  0.65625 0.28125 0  0.6875 0.28125 0  0.71875 0.28125 0  0.75 0.28125 0  0.78125 0.28125 0  0.8125 0.28125 0  0.84375 0.28125 0  0.875 0.28125 0  0.90625 0.28125 0  0.9375 0.28125 0  0.96875 0.28125 0  1 0.28125 0  0 0.3125 0  0.03125 0.3125 0  0.0625 0.3125 0  0.09375 0.3125 0  0.125 0.3125 0  0.15625 0.3125 0  0.1875 0.3125 0  0.21875 0.3125 0  0.25 0.3125 0  0.28125 0.3125 0  0.3125 0.3125 0  0.34375 0.3125 0  0.375 0.3125 0  0.40625 0.3125 0  0.4375 0.3125 0  0.46875 0.3125 0  0.5 0.3125 0  0.53125 0.3125 0  0.5625 0.3125 0  0.59375 0.3125 0  0.625 0.3125 0  0.65625 0.3125 0  0.6875 0.3125 0  0.71875 0.3125 0  0.75 0.3125 0  0.78125 0.3125 0  0.8125 0.3125 0  0.84375 0.3125 0  0.875 0.3125 0  0.90625 0.3125 0  0.9375 0.3125 0  0.96875 0.3125 0  1 0.3125 0  0 0.34375 0  0.03125 0.34375 0  0.0625 0.34375 0  0.09375 0.34375 0  0.125 0.34375 0  0.15625 0.34375 0  0.1875 0.34375 0  0.21875 0.34375 0  0.25 0.34375 0  0.28125 0.34375 0  0.3125 0.34375 0  0.34375 0.34375 0  0.375 0.34375 0  0.40625 0.34375 0  0.4375 0.34375 0  0.46875 0.34375 0  0.5 0.34375 0  0.53125 0.34375 0  0.5625 0.34375 0  0.59375 0.34375 0  0.625 0.34375 0  0.65625 0.34375 0  0.6875 0.34375 0  0.71875 0.34375 0  0.75 0.34375 0  0.78125 0.34375 0  0.8125 0.34375 0  0.84375 0.34375 0  0.875 0.34375 0  0.90625 0.34375 0  0.9375 0.34375 0  0.96875 0.34375 0  1 0.34375 0  0 0.375 0  0.03125 0.375 0  0.0625 0.375 0  0.09375 0.375 0  0.125 0.375 0  0.15625 0.375 0  0.1875 0.375 0  0.21875 0.375 0  0.25 0.375 0  0.28125 0.375 0  0.3125 0.375 0  0.34375 0.375 0  0.375 0.375 0  0.40625 0.375 0  0.4375 0.375 0  0.46875 0.375 0  0.5 0.375 0  0.53125 0.375 0  0.5625 0.375 0  0.59375 0.375 0  0.625 0.375 0  0.65625 0.375 0  0.6875 0.375 0  0.71875 0.375 0  0.75 0.375 0  0.78125 0.375 0  0.8125 0.375 0  0.84375 0.375 0  0.875 0.375 0  0.90625 0.375 0  0.9375 0.375 0  0.96875 0.375 0  1 0.375 0  0 0.40625 0  0.03125 0.40625 0  0.0625 0.40625 0  0.09375 0.40625 0  0.125 0.40625 0  0.15625 0.40625 0  0.1875 0.40625 0  0.21875 0.40625 0  0.25 0.40625 0  0.28125 0.40625 0  0.3125 0.40625 0  0.34375 0.40625 0  0.375 0.40625 0  0.40625 0.40625 0  0.4375 0.40625 0  0.46875 0.40625 0  0.5 0.40625 0  0.53125 0.40625 0  0.5625 0.40625 0  0.59375 0.40625 0  0.625 0.40625 0  0.65625 0.40625 0  0.6875 0.40625 0  0.71875 0.40625 0  0.75 0.40625 0  0.78125 0.40625 0  0.8125 0.40625 0  0.84375 0.40625 0  0.875 0.40625 0  0.90625 0.40625 0  0.9375 0.40625 0  0.96875 0.40625 0  1 0.40625 0  0 0.4375 0  0.03125 0.4375 0  0.0625 0.4375 0  0.09375 0.4375 0  0.125 0.4375 0  0.15625 0.4375 0  0.1875 0.4375 0  0.21875 0.4375 0  0.25 0.4375 0  0.28125 0.4375 0  0.3125 0.4375 0  0.34375 0.4375 0  0.375 0.4375 0  0.40625 0.4375 0  0.4375 0.4375 0  0.46875 0.4375 0  0.5 0.4375 0  0.53125 0.4375 0  0.5625 0.4375 0  0.59375 0.4375 0  0.625 0.4375 0  0.65625 0.4375 0  0.6875 0.4375 0  0.71875 0.4375 0  0.75 0.4375 0  0.78125 0.4375 0  0.8125 0.4375 0  0.84375 0.4375 0  0.875 0.4375 0  0.90625 0.4375 0  0.9375 0.4375 0  0.96875 0.4375 0  1 0.4375 0  0 0.46875 0  0.03125 0.46875 0  0.0625 0.46875 0  0.09375 0.46875 0  0.125 0.46875 0  0.15625 0.46875 0  0.1875 0.46875 0  0.21875 0.46875 0  0.25 0.46875 0  0.28125 0.46875 0  0.3125 0.46875 0  0.34375 0.46875 0  0.375 0.46875 0  0.40625 0.46875 0  0.4375 0.46875 0  0.46875 0.46875 0  0.5 0.46875 0  0.53125 0.46875 0  0.5625 0.46875 0  0.59375 0.46875 0  0.625 0.46875 0  0.65625 0.46875 0  0.6875 0.46875 0  0.71875 0.46875 0  0.75 0.46875 0  0.78125 0.46875 0  0.8125 0.46875 0  0.84375 0.46875 0  0.875 0.46875 0  0.90625 0.46875 0  0.9375 0.46875 0  0.96875 0.46875 0  1 0.46875 0  0 0.5 0  0.03125 0.5 0  0.0625 0.5 0  0.09375 0.5 0  0.125 0.5 0  0.15625 0.5 0  0.1875 0.5 0  0.21875 0.5 0  0.25 0.5 0  0.28125 0.5 0  0.3125 0.5 0  0.34375 0.5 0  0.375 0.5 0  0.40625 0.5 0  0.4375 0.5 0  0.46875 0.5 0  0.5 0.5 0  0.53125 0.5 0  0.5625 0.5 0  0.59375 0.5 0  0.625 0.5 0  0.65625 0.5 0  0.6875 0.5 0  0.71875 0.5 0  0.75 0.5 0  0.78125 0.5 0  0.8125 0.5 0  0.84375 0.5 0  0.875 0.5 0  0.90625 0.5 0  0.9375 0.5 0  0.96875 0.5 0  1 0.5 0  0 0.53125 0  0.03125 0.53125 0  0.0625 0.53125 0  0.09375 0.53125 0  0.125 0.53125 0  0.15625 0.53125 0  0.1875 0.53125 0  0.21875 0.53125 0  0.25 0.53125 0  0.28125 0.53125 0  0.3125 0.53125 0  0.34375 0.53125 0  0.375 0.53125 0  0.40625 0.53125 0  0.4375 0.53125 0  0.46875 0.53125 0  0.5 0.53125 0  0.53125 0.53125 0  0.5625 0.53125 0  0.59375 0.53125 0  0.625 0.53125 0  0.65625 0.53125 0  0.6875 0.53125 0  0.71875 0.53125 0  0.75 0.53125 0  0.78125 0.531
[...]
<PointData  Scalars="ControlVisualisation"> 
<DataArray  type="Float64"  Name="ControlVisualisation"  format="ascii">4.9902458950706774e-01  4.8890211774047077e-01  4.7588193508434429e-01  4.5606795894531343e-01  4.3708846704066290e-01  4.1824912447311907e-01  3.9555318233310677e-01  3.7451478882379102e-01  3.5582590575213302e-01  3.3561023476913787e-01  3.1536493837470059e-01  2.9524621986405836e-01  2.7796585265719909e-01  2.6340790861321267e-01  2.5114525600762860e-01  2.4338394007460287e-01  2.4254127761238617e-01  2.4934499389726184e-01  2.6278701929712472e-01  2.8009754316972230e-01  2.9877373823938808e-01  3.1909684326180271e-01  3.4159437727577202e-01  3.6370228772194479e-01  3.8478706848226807e-01  4.0332211916760918e-01  4.2364013696759323e-01  4.4502564431398822e-01  4.6138210032282306e-01  4.7803366653442791e-01  4.9488081758895930e-01  5.0511477223202084e-01  5.1453348640411589e-01  4.9018453803992573e-01  4.8213733659090047e-01  4.6234322372005698e-01  4.5401540032706461e-01  4.3067330867704451e-01  4.1000485425783140e-01  3.9080459687279157e-01  3.7100182218190964e-01  3.5017501350733138e-01  3.3177944610695093e-01  3.1054978108235076e-01  2.9204911048285503e-01  2.7423908538166974e-01  2.5869815035228760e-01  2.4684584383056871e-01  2.3997818485079980e-01  2.3923585132981290e-01  2.4563045223857943e-01  2.5799880238587874e-01  2.7472307384186623e-01  2.9409679565677327e-01  3.1506578130865542e-01  3.3598898943548644e-01  3.5888632003541754e-01  3.7840662779182310e-01  3.9897517304165964e-01  4.1830787564944860e-01  4.3640557505122546e-01  4.5490786046499626e-01  4.7484993180025997e-01  4.8214452025152232e-01  4.9850134328257356e-01  5.0597718741038755e-01  4.7989180779646551e-01  4.6574481346573721e-01  4.6739353268968375e-01  4.3718814913819737e-01  4.2461228388389571e-01  4.0367259180556259e-01  3.8206871368345580e-01  3.6007342741237286e-01  3.4128483706979984e-01  3.1967940649206750e-01  3.0147024177674986e-01  2.8158556946236030e-01  2.6447494604385902e-01  2.4970669217353672e-01  2.3901458377003174e-01  2.3240137234853464e-01  2.3162059937781340e-01  2.3785374476437848e-01  2.4936212216833076e-01  2.6473221727447721e-01  2.8346746055587235e-01  3.0387987950627043e-01  3.2612451873822929e-01  3.4644917903654454e-01  3.6886585277870632e-01  3.8822488498780189e-01  4.0951766850102073e-01  4.2968241569106519e-01  4.4914479682769404e-01  4.6020438355136611e-01  4.8572475338950399e-01  4.8401353674372949e-01  4.9723094446077798e-01  4.6492245563560181e-01  4.6115714159840226e-01  4.3920601153946076e-01  4.2422127698465500e-01  4.1138588064589443e-01  3.8220257562129334e-01  3.6612802168650910e-01  3.4926144782950652e-01  3.2477909053385501e-01  3.0937000733896536e-01  2.8581854473551904e-01  2.6967136835769467e-01  2.5145326049652161e-01  2.3409564521830362e-01  2.2350993876284997e-01  2.1716220354631210e-01  2.1777442510110823e-01  2.2208443809602452e-01  2.3358669840622942e-01  2.4847178296815742e-01  2.6980678381183854e-01  2.9105615938293306e-01  3.1062526214742808e-01  3.3560451929365648e-01  3.5263224630392231e-01  3.7723613607557765e-01  3.9433483928714030e-01  4.0960664836907035e-01  4.3639451939179114e-01  4.4746078759406388e-01  4.6112595460929956e-01  4.7891485973811770e-01  4.8334841054035871e-01  4.4995260828870387e-01  4.4231480763562231e-01  4.3047687225943543e-01  4.1584290125952533e-01  3.9770351988077129e-01  3.7242167536869675e-01  3.5708878562212865e-01  3.2960780224405295e-01  3.1146633223615511e-01  2.8810826625189340e-01  2.6976834063929089e-01  2.5090980902808746e-01  2.2990997302259891e-01  2.1512335129791627e-01  2.0369822857150605e-01  1.9833086247744980e-01  1.9537662120591995e-01  2.0296306285569909e-01  2.1267083821134791e-01  2.2811201157597527e-01  2.4692780992722674e-01  2.7126236134350645e-01  2.9253669120202253e-01  3.1447669611485690e-01  3.3809338424713453e-01  3.5757141538776838e-01  3.8435041459978475e-01  3.9918876246955304e-01  4.2323992510062436e-01  4.3835666851952082e-01  4.5172366126433311e-01  4.6144756317244801e-01  4.6901297754072224e-01  4.3450936998197276e-01  4.2519806748104982e-01  4.1209224968950886e-01  3.9032916193970807e-01  3.7734259834664668e-01  3.4721320980856352e-01  3.2818447415678159e-01  3.1458641241663921e-01  2.8926894325435015e-01  2.7445265524184753e-01  2.5148888146798165e-01  2.3362372135645065e-01  2.1702931544586734e-01  1.9870391262316126e-01  1.8900413150917733e-01  1.8413664200924826e-01  1.8538905016217311e-01  1.8844442202367409e-01  1.9705801480678226e-01  2.1128143521646933e-01  2.3241741740275859e-01  2.5313425369247244e-01  2.7374818560054692e-01  2.9906223428469070e-01  3.1694343153457538e-01  3.4180093485905017e-01  3.5655743183518412e-01  3.7448729492574045e-01  4.0345483438570129e-01  4.1426760450719785e-01  4.3363743638933283e-01  4.4462743588259790e-01  4.5390281666513299e-01  4.1500783836213173e-01  4.0831733878171678e-01  3.9114307261963133e-01  3.7442767427849144e-01  3.6182857613843722e-01  3.2562212364613824e-01  3.2473257723893922e-01  2.9583343338428691e-01  2.7348742148053123e-01  2.5054927077025196e-01  2.2925561386700596e-01  2.1254696955037519e-01  1.9067166761125531e-01  1.7412248324335389e-01  1.6668126574881709e-01  1.5964629502789260e-01  1.5854560800141970e-01  1.6364124780384606e-01  1.7516439550141594e-01  1.8515424019909699e-01  2.0670676560141377e-01  2.3063650817132039e-01  2.5096184338420902e-01  2.7429218062173222e-01  2.9880955113939917e-01  3.2309742463411684e-01  3.5047032994565630e-01  3.5208761227561475e-01  3.8639139169778958e-01  3.9721327903328751e-01  4.1228140270415992e-01  4.2682803976604988e-01  4.3397172047293542e-01  3.9514527782588749e-01  3.9053724703545128e-01  3.7156472352352810e-01  3.6133699509638845e-01  3.3965435563437452e-01  3.1648491258506922e-01  3.0267693490586306e-01  2.7315920835609309e-01  2.4656378857980910e-01  2.3238655450876905e-01  2.0848620299025289e-01  1.9019578247873462e-01  1.7235176580340536e-01  1.5607558181087278e-01  1.4280028726335395e-01  1.4154685501243661e-01  1.4029078620291902e-01  1.4468786862377220e-01  1.5129000153619560e-01  1.6731004996274673e-01  1.8600068003733938e-01  2.0950665301840840e-01  2.2961150141436859e-01  2.5646181945679397e-01  2.7202548579520258e-01  2.9908728266671902e-01  3.2892249455177497e-01  3.4088788152748239e-01  3.6340665921145632e-01  3.8185183256873217e-01  3.9141969102082858e-01  4.0754443831900755e-01  4.1295312582374644e-01  3.7739701182385132e-01  3.7034762363175938e-01  3.5315081631958839e-01  3.3766154292634531e-01  3.2310911696865385e-01  2.9305996786645050e-01  2.8254207226947770e-01  2.4662642308576516e-01  2.3366767436915759e-01  2.1123914395915316e-01  1.8409656644586742e-01  1.7260581004083381e-01  1.5092869598907924e-01  1.2953298033714181e-01  1.2551386707804302e-01  1.2040942216397862e-01  1.1348111807086095e-01  1.2337506855098881e-01  1.2767426160565126e-01  1.4214168961951290e-01  1.6174455464520848e-01  1.8837111446217575e-01  2.0507265747756470e-01  2.3383281744485593e-01  2.5885438651752318e-01  2.7272659008202238e-01  3.0689478443968748e-01  3.1701504447411027e-01  3.4472752994511646e-01  3.5675031757683623e-01  3.7047893908203899e-01  3.8535141962022529e-01  3.9300494847515915e-01  3.5745978840477688e-01  3.5307867017648109e-01  3.3305142414473515e-01  3.2520332793806939e-01  3.0558567300082201e-01  2.8100211605653164e-01  2.5953460704429571e-01  2.3315859259151234e-01  2.1338946153184829e-01  1.8482398048620677e-01  1.6806293420982407e-01  1.5395861970018687e-01  1.2841016532895450e-01  1.1517397671727261e-01  1.1024603853439327e-01  9.2351345698572590e-02  1.0065130126414752e-01  9.5867349940556595e-02  1.0942596092275750e-01  1.1796887639624959e-01  1.4142229413074139e-01  1.6415622141019459e-01  1.8626492706312647e-01  2.0523518405140864e-01  2.3547841861903548e-01  2.5800093114419131e-01  2.8354501969793577e-01  3.0195972222444911e-01  3.2493098920332425e-01  3.4064379555513585e-01  3.4749140435557202e-01  3.6440958144955082e-01  3.6971715212695039e-01  3.3757651470338873e-01  3.3268791519401425e-01  3.1627367430041031e-01  3.0629067775471330e-01  2.9096104385336130e-01  2.5771238792293277e-01  2.4163334059807773e-01  2.1457123552160445e-01  1.8945757313306613e-01  1.6905107037584835e-01  1.5243441528341645e-01  1.3386355712126918e-01  1.1373822106962531e-01  1.0265588611130813e-01  8.6105444467613812e-02  8.0177825429728233e-02  8.8526094912424608e-02  7.8460537856668899e-02  9.4996521021263020e-02  9.6053438197340496e-02  1.2169071660832556e-01  1.4291345792299120e-01  1.6611087178788397e-01  1.8902469245966694e-01  2.0849891648225621e-01  2.3543779744191945e-01  2.6333096280186635e-01  2.7758683384586569e-01  3.0693815376219608e-01  3.1843212911938057e-01  3.2644579864345036e-01  3.4006792959980059e-01  3.4538106159687448e-01  3.1754163979944783e-01  3.1516465505529662e-01  2.9824827634954831e-01  2.9248770823574199e-01  2.7397243407595878e-01  2.4249561451351337e-01  2.2811955036619810e-01  1.9466537891659397e-01  1.7187250718595959e-01  1.4980643439254282e-01  1.3157108098435805e-01  1.1417413130701588e-01  9.8017629890371494e-02  8.4200861723938147e-02  7.3143463718171542e-02  8.0819036810448358e-02  6.8234821640217130e-02  7.4591670675734439e-02  7.9629886932217314e-02  8.4022081660622722e-02  9.6585997378355909e-02  1.2255510024294358e-01  1.3922383692725759e-01  1.6752647736184384e-01  1.9110363655810408e-01  2.1267079778348616e-01  2.4522673056182059e-01  2.5852166300908458e-01  2.8703628651546131e-01  3.0043041922109681e-01  3.0418507195453143e-01  3.1773011269896162e-01  3.2077218074741753e-01  2.9969363982599767e-01  2.9868934834837085e-01  2.8282378908420419e-01  2.7925080668272667e-01  2.5939817410293642e-01  2.2976527354379800e-01  2.0925127547308925e-01  1.7556830915705898e-01  1.4929981918626184e-01  1.2914217873825440e-01  1.0949460086308760e-01  9.2003918180527763e-02  8.1030560910991187e-02  7.1863247854336648e-02  6.8409838784719235e-02  7.5203138610614575e-02  6.0311602901215330e-02  7.4664219162936363e-02  6.5685906456734194e-02  7.7554038958331184e-02  7.6739046029871832e-02  1.0038764819740442e-01  1.1744821157869267e-01  1.4082481081850309e-01  1.6696826338476767e-01  1.9343304408952339e-01  2.2431157580362526e-01  2.4152254972994711e-01  2.6830795031333138e-01  2.8314087671006843e-01  2.8435587853161476e-01  2.9656525327569616e-01  2.9817622661732757e-01  2.8512221755883471e-01  2.8404362338734779e-01  2.6975845851343588e-01  2.6516075070354944e-01  2.4663542777269085e-01  2.1386783600498566e-01  1.9251260703817455e-01  1.5528740172532468e-01  1.2834396933532036e-01  1.0568557936022381e-01  7.7620952671372645e-02  6.8287746887671114e-02  5.8033496423835866e-02  5.4358898008107018e-02  5.6814979108139679e-02  6.1473767159340775e-02  5.5055295086844605e-02  6.9270226788354247e-02  4.5911385788281411e-02  6.8541494770811298e-02  5.9823969190763077e-02  7.3352649870767256e-02  9.0816037161115179e-02  1.1790602384647436e-01  1.4142773413023296e-01  1.7042843447096553e-01  2.0634463344428222e-01  2.2316183134647241e-01  2.5142873880734784e-01  2.6493322596152435e-01  2.6681611460632570e-01  2.7721406902027351e-01  2.7866379842208666e-01  2.7328678938861317e-01  2.7333319497562536e-01  2.5916337378650867e-01  2.5592968811021760e-01  2.3778299528221447e-01  2.0248526181678486e-01  1.8092584472515535e-01  1.3729248074486528e-01  1.1011682109648144e-01  7.5885295875312175e-02  5.3871761994931142e-02  3.9270787809183298e-02  3.2346406200134521e-02  3.3385688699207695e-02  4.2523966442431151e-02  4.4844639795540472e-02  4.0937732583751121e-02  5.0302461551264284e-02  3.4831012164238888e-02  3.3510215811839349e-02  4.0422297460081122e-02  4.7897090841838880e-02  6.3179758070308942e-02  9.1435386309801400e-02  1.2358452982198442e-01  1.4840180273201106e-01  1.9109697276286924e-01  2.0928807014743867e-01  2.3887626782828292e-01  2.5150884157085529e-01  2.5182125202387889e-01  2.6184776058880671e-01  2.6196421541103559e-01  2.6544732341170274e-01  2.6626302311951439e-01  2.5290475073333246e-01  2.5071174046871308e-01  2.3134740288487804e-01  1.9661042273251950e-01  1.7162722061023999e-01  1.2637018984066051e-01  9.5438161883952294e-02  5.9659697716797980e-02  3.4047621818569712e-02  8.9397129734829668e-03  2.3500340582531523e-03  1.9290983993870505e-03  2.2944123225061164e-02  2.3712357477234148e-02  2.4960624011832477e-02  2.3157663537154240e-02  2.1991027745975743e-02  1.9935808742010990e-02  1.6070621135475749e-02  2.0575005697142920e-02  4.2161377475342370e-02  6.7168186698049220e-02  1.0762535883009312e-01  1.3617882187355265e-01  1.7833256453644986e-01  1.9992479111118749e-01  2.2931502017309435e-01  2.4227480934825160e-01  2.4153030667625658e-01  2.5036469165018616e-01  2.4972333278829478e-01  2.6287385562834858e-01  2.6448881273753222e-01  2.5022557933195561e-01  2.5000986163061750e-01  2.2864977035956663e-01  1.9656592151752997e-01  1.6678601453855041e-01  1.2638156987050106e-01  8.7457005222070325e-02  5.4448277491148001e-02  2.7484016925572164e-02  3.4153478219186659e-03  9.8797913155338683e-04  4.4595925670116543e-04  2.7154864422897673e-04  2.2535176329534619e-04  2.6052165292040285e-04  3.1224511322275935e-04  3.8808864351816999e-04  5.8477416790165778e-04  1.0646356276767350e-03  3.5252211085163979e-03  2.8605057321193009e-02  5.6334579056182943e-02  9.1736480594831804e-02  1.3192589263497964e-01  1.7056245320327595e-01  1.9670236190706269e-01  2.2330370893185147e-01  2.3821643930043893e-01  2.3522770629437856e-01  2.4491151067747419e-01  2.4341381877192186e-01  2.6619077448508460e-01  2.6726015079717436e-01  2.5426898304554707e-01  2.5241419897408685e-01  2.3326372627073086e-01  1.9869487139584127e-01  1.7384963645324339e-01  1.2904479780926448e-01  9.8867362523696073e-02  6.2639925534123730e-02  3.6934430766855340e-02  1.1852107793015002e-02  4.5609523192719093e-03  3.7197292432391438e-03  1.7079015905939552e-03  4.7820646783729192e-04  3.4640270812394609e-04  3.3648866962174349e-04  3.6036606938241478e-04  4.2890004262292826e-04  7.0532533685149323e-04  2.4223148908718121e-03  3.0327040820123385e-02  5.8938600389144169e-02  9.6967227007440232e-02  1.3004187890546454e-01  1.7437891016190291e-01  1.9621612491155813e-01  2.2506076764726715e-01  2.3776251800499129e-01  2.3615392751468034e-01  2.4468652847829209e-01  2.4388621831364110e-01  2.7465910058052900e-01  2.7516238151350059e-01  2.6178093312368877e-01  2.5912176537044579e-01  2.4164624131548545e-01  2.0678195443602126e-01  1.8564469556726268e-01  1.4208542440856037e-01  1.1546623498278756e-01  8.0695263878130086e-02  5.7975933458269235e-02  4.0850138907033609e-02  3.0163619041686161e-02  2.8012204315184801e-02  2.7306869098483032e-02  2.7487032863462331e-02  2.7425016312076878e-02  2.7895436026487364e-02  2.8276678445717268e-02  2.8842402731137314e-02  3.0241861726975065e-02  3.6700128352479613e-02  5.1922448744467123e-02  7.3484382114774510e-02  1.1333724414086999e-01  1.4200837355019652e-01  1.8344016701860802e-01  2.0174468355786782e-01  2.3122697585957666e-01  2.4231021091708593e-01  2.4157432505800935e-01  2.5048514777452774e-01  2.5039879865951381e-01  2.8687139182724591e-01  2.8652196756609583e-01  2.7350115562476746e-01  2.6993178061366574e-01  2.5232676174477586e-01  2.2022398081802005e-01  1.9989143200887588e-01  1.6327262413230631e-01  1.3642392301640549e-01  1.1276459584909668e-01  8.2724440541873806e-02  7.1198729434188174e-02  5.6406944812486828e-02  4.7816322917272502e-02  4.5476815254456959e-02  4.4274899308934794e-02  4.5267497184291842e-02  4.4882708394400159e-02  4.7018295496242299e-02  5.0845360575249514e-02  5.7726943165534048e-02  7.2097336171360021e-02  7.7867051015745536e-02  1.1191899527217898e-01  1.3544415650531236e-01  1.6005332026117911e-01  1.9626119960679345e-01  2.1420718158658511e-01  2.4078738301008623e-01  2.5177035983701401e-01  2.5190904616184834e-01  2.6059794240692125e-01  2.6166806145750493e-01  3.0169030401728053e-01  3.0175068661428900e-01  2.8745789158452140e-01  2.8558700515980440e-01  2.6727387387524854e-01  2.3858014304414660e-01  2.1897969710220383e-01  1.8619038080843137e-01  1.6062396298322074e-01  1.3959278763836883e-01  1.1756023854748771e-01  9.6421340518348234e-02  8.3180271742053807e-02  7.2176483870267316e-02  6.3263435759729411e-02  6.2940081276762441e-02  6.3231476749831456e-02  6.4815237481200119e-02  6.5600367740543064e-02  7.6253092012375678e-02  8.7516373881158127e-02  9.8730042414974115e-02  1.1829509979356029e-01  1.4074725890864542e-01  1.5700611154238742e-01  1.8449601393823617e-01  2.1621097730191441e-01  2.3183335627212667e-01  2.5467023585296911e-01  2.6686604765865318e-01  2.6551812766012783e-01  2.7563406565374460e-01  2.7636837991189817e-01  3.2011143588967228e-01  3.1895412415760138e-01  3.0375279822604240e-01  2.9985729696944785e-01  2.8348226731227566e-01  2.5364466524106904e-01  2.4094807637538562e-01  2.0823182676489088e-01  1.8608858318599872e-01  1.6345492864653047e-01  1.4378035567065914e-01  1.2331505022174850e-01  1.0172750931551519e-01  8.7553446494757020e-02  8.1685648543192851e-02  7.6272826183663475e-02  7.1157811934002502e-02  7.7118065112042430e-02  8.4062849211786903e-02  8.9154679022691558e-02  1.0555132039380194e-01  1.2418111849563745e-01  1.4605213612855067e-01  1.6259706543409158e-01  1.8552213284667785e-01  2.0877197576094403e-01  2.3692176267080695e-01  2.4637448037442305e-01  2.7142367838587050e-01  2.8192631154978931e-01  2.8216935133626209e-01  2.9316027705479325e-01  2.9530215898805029e-01  3.4138286605158419e-01  3.3765449065729153e-01  3.2293312336894958e-01  3.1496301870094218e-01  3.0204198695620338e-01  2.7074984542437275e-01  2.5693742845913320e-01  2.3160902690211077e-01  2.0740119666517526e-01  1.8665951035646841e-01  1.6752715466194579e-01  1.4822655467234513e-01  1.2439535512267724e-01  1.0575952009509607e-01  9.4437389805313354e-02  8.9654643028272779e-02  8.7966818247017881e-02  8.9812057584086238e-02  9.5503467906882550e-02  1.0679688983345600e-01  1.2584197716488521e-01  1.4927348489575393e-01  1.6887313707403651e-01  1.8685994337677797e-01  2.0877266815610246e-01  2.3035935670937285e-01  2.5259711655607564e-01  2.6486593189150320e-01  2.9081172233524538e-01  2.9750932695356325e-01  3.0215859656935551e-01  3.1280837389384542e-01  3.1735266200910467e-01  3.6315674417884741e-01  3.5977341929263484e-01  3.4116789365431727e-01  3.3527891990573472e-01  3.1823078169341246e-01  2.9613607562125288e-01  2.7717003566824239e-01  2.5253667532909180e-01  2.3440262404440521e-01  2.0639409034814352e-01  1.8750755858148474e-01  1.6961742135031654e-01  1.4348744027034915e-01  1.2537641382371179e-01  1.1328712537738053e-01  1.0312233252067222e-01  1.0427678969799269e-01  1.0367539699214112e-01  1.1406312591255748e-01  1.2682298179229962e-01  1.4441014842457289e-01  1.7087540451640673e-01  1.8834389002809310e-01  2.0748798234432927e-01  2.3500388766434516e-01  2.5108336794335540e-01  2.7431007165737353e-01  2.9076717956364012e-01  3.0694373579749618e-01  3.1909958071940658e-01  3.2145334682737930e-01  3.3596373662835077e-01  3.4013573274736947e-01  3.8531977959550928e-01  3.7897462039364049e-01  3.6286093662735208e-01  3.4917152834824272e-01  3.3693532998808512e-01  3.0937664477915339e-01  3.0248231274019827e-01  2.6842317333549692e-01  2.5685064131555801e-01  2.3549212585191662e-01  2.0781325258487615e-01  1.9314927804443624e-01  1.6671419434288146e-01  1.4475084380353098e-01  1.3415674327889818e-01  1.2643675524590925e-01  1.2055142992334579e-01  1.2686683535901910e-01  1.3449030932500664e-01  1.4573984310676064e-01  1.6742000997130030e-01  1.9427370635225835e-01  2.0856750207916322e-01  2.3695775453669402e-01  2.5703458500741766e-01  2.6737717159009550e-01  2.9968518232891250e-01  3.0344376184057031e-01  3.2653693037309961e-01  3.3408755969595666e-01  3.4431010330286638e-01  3.5645778775178227e-01  3.6359781519523943e-01  4.0547827253853475e-01  4.0170366135102614e-01  3.8356094229500015e-01  3.748171752