<?xml version="1.0"?>
<VTKFile type="UnstructuredGrid"  version="0.1"  >
<UnstructuredGrid>
<Piece  NumberOfPoints="1089" NumberOfCells="2048">
<Points>
<DataArray  type="Float64"  NumberOfComponents="3"  format="ascii">0 0 0  0.03125 0 0  0.0625 0 0  0.09375 0 0  0.125 0 0  0.15625 0 0  0.1875 0 0  0.21875 0 0  0.25 0 0  0.28125 0 0  0.3125 0 0  0.34375 0 0  0.375 0 0  0.40625 0 0  0.4375 0 0  0.46875 0 0  0.5 0 0  0.53125 0 0  0.5625 0 0  0.59375 0 0  0.625 0 0  0.65625 0 0  0.6875 0 0  0.71875 0 0  0.75 0 0  0.78125 0 0  0.8125 0 0  0.84375 0 0  0.875 0 0  0.90625 0 0  0.9375 0 0  0.96875 0 0  1 0 0  0 0.03125 0  0.03125 0.03125 0  0.0625 0.03125 0  0.09375 0.03125 0  0.125 0.03125 0  0.15625 0.03125 0  0.1875 0.03125 0  0.21875 0.03125 0  0.25 0.03125 0  0.28125 0.03125 0  0.3125 0.03125 0  0.34375 0.03125 0  0.375 0.03125 0  0.40625 0.03125 0  0.4375 0.03125 0  0.46875 0.03125 0  0.5 0.03125 0  0.53125 0.03125 0  0.5625 0.03125 0  0.59375 0.03125 0  0.625 0.03125 0  0.65625 0.03125 0  0.6875 0.03125 0  0.71875 0.03125 0  0.75 0.03125 0  0.78125 0.03125 0  0.8125 0.03125 0  0.84375 0.03125 0  0.875 0.03125 0  0.90625 0.03125 0  0.9375 0.03125 0  0.96875 0.03125 0  1 0.03125 0  0 0.0625 0  0.03125 0.0625 0  0.0625 0.0625 0  0.09375 0.0625 0  0.125 0.0625 0  0.15625 0.0625 0  0.1875 0.0625 0  0.21875 0.0625 0  0.25 0.0625 0  0.28125 0.0625 0  0.3125 0.0625 0  0.34375 0.0625 0  0.375 0.0625 0  0.40625 0.0625 0  0.4375 0.0625 0  0.46875 0.0625 0  0.5 0.0625 0  0.53125 0.0625 0  0.5625 0.0625 0  0.59375 0.0625 0  0.625 0.0625 0  0.65625 0.0625 0  0.6875 0.0625 0  0.71875 0.0625 0  0.75 0.0625 0  0.78125 0.0625 0  0.8125 0.0625 0  0.84375 0.0625 0  0.875 0.0625 0  0.90625 0.0625 0  0.9375 0.0625 0  0.96875 0.0625 0  1 0.0625 0  0 0.09375 0  0.03125 0.09375 0  0.0625 0.09375 0  0.09375 0.09375 0  0.125 0.09375 0  0.15625 0.09375 0  0.1875 0.09375 0  0.21875 0.09375 0  0.25 0.09375 0  0.28125 0.09375 0  0.3125 0.09375 0  0.34375 0.09375 0  0.375 0.09375 0  0.40625 0.09375 0  0.4375 0.09375 0  0.46875 0.09375 0  0.5 0.09375 0  0.53125 0.09375 0  0.5625 0.09375 0  0.59375 0.09375 0  0.625 0.09375 0  0.65625 0.09375 0  0.6875 0.09375 0  0.71875 0.09375 0  0.75 0.09375 0  0.78125 0.09375 0  0.8125 0.09375 0  0.84375 0.09375 0  0.875 0.09375 0  0.90625 0.09375 0  0.9375 0.09375 0  0.96875 0.09375 0  1 0.09375 0  0 0.125 0  0.03125 0.125 0  0.0625 0.125 0  0.09375 0.125 0  0.125 0.125 0  0.15625 0.125 0  0.1875 0.125 0  0.21875 0.125 0  0.25 0.125 0  0.28125 0.125 0  0.3125 0.125 0  0.34375 0.125 0  0.375 0.125 0  0.40625 0.125 0  0.4375 0.125 0  0.46875 0.125 0  0.5 0.125 0  0.53125 0.125 0  0.5625 0.125 0  0.59375 0.125 0  0.625 0.125 0  0.65625 0.125 0  0.6875 0.125 0  0.71875 0.125 0  0.75 0.125 0  0.78125 0.125 0  0.8125 0.125 0  0.84375 0.125 0  0.875 0.125 0  0.90625 0.125 0  0.9375 0.125 0  0.96875 0.125 0  1 0.125 0  0 0.15625 0  0.03125 0.15625 0  0.0625 0.15625 0  0.09375 0.15625 0  0.125 0.15625 0  0.15625 0.15625 0  0.1875 0.15625 0  0.21875 0.15625 0  0.25 0.15625 0  0.28125 0.15625 0  0.3125 0.15625 0  0.34375 0.15625 0  0.375 0.15625 0  0.40625 0.15625 0  0.4375 0.15625 0  0.46875 0.15625 0  0.5 0.15625 0  0.53125 0.15625 0  0.5625 0.15625 0  0.59375 0.15625 0  0.625 0.15625 0  0.65625 0.15625 0  0.6875 0.15625 0  0.71875 0.15625 0  0.75 0.15625 0  0.78125 0.15625 0  0.8125 0.15625 0  0.84375 0.15625 0  0.875 0.15625 0  0.90625 0.15625 0  0.9375 0.15625 0  0.96875 0.15625 0  1 0.15625 0  0 0.1875 0  0.03125 0.1875 0  0.0625 0.1875 0  0.09375 0.1875 0  0.125 0.1875 0  0.15625 0.1875 0  0.1875 0.1875 0  0.21875 0.1875 0  0.25 0.1875 0  0.28125 0.1875 0  0.3125 0.1875 0  0.34375 0.1875 0  0.375 0.1875 0  0.40625 0.1875 0  0.4375 0.1875 0  0.46875 0.1875 0  0.5 0.1875 0  0.53125 0.1875 0  0.5625 0.1875 0  0.59375 0.1875 0  0.625 0.1875 0  0.65625 0.1875 0  0.6875 0.1875 0  0.71875 0.1875 0  0.75 0.1875 0  0.78125 0.1875 0  0.8125 0.1875 0  0.84375 0.1875 0  0.875 0.1875 0  0.90625 0.1875 0  0.9375 0.1875 0  0.96875 0.1875 0  1 0.1875 0  0 0.21875 0  0.03125 0.21875 0  0.0625 0.21875 0  0.09375 0.21875 0  0.125 0.21875 0  0.15625 0.21875 0  0.1875 0.21875 0  0.21875 0.21875 0  0.25 0.21875 0  0.28125 0.21875 0  0.3125 0.21875 0  0.34375 0.21875 0  0.375 0.21875 0  0.40625 0.21875 0  0.4375 0.21875 0  0.46875 0.21875 0  0.5 0.21875 0  0.53125 0.21875 0  0.5625 0.21875 0  0.59375 0.21875 0  0.625 0.21875 0  0.65625 0.21875 0  0.6875 0.21875 0  0.71875 0.21875 0  0.75 0.21875 0  0.78125 0.21875 0  0.8125 0.21875 0  0.84375 0.21875 0  0.875 0.21875 0  0.90625 0.21875 0  0.9375 0.21875 0  0.96875 0.21875 0  1 0.21875 0  0 0.25 0  0.03125 0.25 0  0.0625 0.25 0  0.09375 0.25 0  0.125 0.25 0  0.15625 0.25 0  0.1875 0.25 0  0.21875 0.25 0  0.25 0.25 0  0.28125 0.25 0  0.3125 0.25 0  0.34375 0.25 0  0.375 0.25 0  0.40625 0.25 0  0.4375 0.25 0  0.46875 0.25 0  0.5 0.25 0  0.53125 0.25 0  0.5625 0.25 0  0.59375 0.25 0  0.625 0.25 0  0.65625 0.25 0  0.6875 0.25 0  0.71875 0.25 0  0.75 0.25 0  0.78125 0.25 0  0.8125 0.25 0  0.84375 0.25 0  0.875 0.25 0  0.90625 0.25 0  0.9375 0.25 0  0.96875 0.25 0  1 0.25 0  0 0.28125 0  0.03125 0.28125 0  0.0625 0.28125 0  0.09375 0.28125 0  0.125 0.28125 0  0.15625 0.28125 0  0.1875 0.28125 0  0.21875 0.28125 0  0.25 0.28125 0  0.28125 0.28125 0  0.3125 0.28125 0  0.34375 0.28125 0  0.375 0.28125 0  0.40625 0.28125 0  0.4375 0.28125 0  0.46875 0.28125 0  0.5 0.28125 0  0.53125 0.28125 0  0.5625 0.28125 0  0.59375 0.28125 0  0.625 0.28125 0  0.65625 0.28125 0  0.6875 0.28125 0  0.71875 0.28125 0  0.75 0.28125 0  0.78125 0.28125 0  0.8125 0.28125 0  0.84375 0.28125 0  0.875 0.28125 0  0.90625 0.28125 0  0.9375 0.28125 0  0.96875 0.28125 0  1 0.28125 0  0 0.3125 0  0.03125 0.3125 0  0.0625 0.3125 0  0.09375 0.3125 0  0.125 0.3125 0  0.15625 0.3125 0  0.1875 0.3125 0  0.21875 0.3125 0  0.25 0.3125 0  0.28125 0.3125 0  0.3125 0.3125 0  0.34375 0.3125 0  0.375 0.3125 0  0.40625 0.3125 0  0.4375 0.3125 0  0.46875 0.3125 0  0.5 0.3125 0  0.53125 0.3125 0  0.5625 0.3125 0  0.59375 0.3125 0  0.625 0.3125 0  0.65625 0.3125 0  0.6875 0.3125 0  0.71875 0.3125 0  0.75 0.3125 0  0.78125 0.3125 0  0.8125 0.3125 0  0.84375 0.3125 0  0.875 0.3125 0  0.90625 0.3125 0  0.9375 0.3125 0  0.96875 0.3125 0  1 0.3125 0  0 0.34375 0  0.03125 0.34375 0  0.0625 0.34375 0  0.09375 0.34375 0  0.125 0.34375 0  0.15625 0.34375 0  0.1875 0.34375 0  0.21875 0.34375 0  0.25 0.34375 0  0.28125 0.34375 0  0.3125 0.34375 0  0.34375 0.34375 0  0.375 0.34375 0  0.40625 0.34375 0  0.4375 0.34375 0  0.46875 0.34375 0  0.5 0.34375 0  0.53125 0.34375 0  0.5625 0.34375 0  0.59375 0.34375 0  0.625 0.34375 0  0.65625 0.34375 0  0.6875 0.34375 0  0.71875 0.34375 0  0.75 0.34375 0  0.78125 0.34375 0  0.8125 0.34375 0  0.84375 0.34375 0  0.875 0.34375 0  0.90625 0.34375 0  0.9375 0.34375 0  0.96875 0.34375 0  1 0.34375 0  0 0.375 0  0.03125 0.375 0  0.0625 0.375 0  0.09375 0.375 0  0.125 0.375 0  0.15625 0.375 0  0.1875 0.375 0  0.21875 0.375 0  0.25 0.375 0  0.28125 0.375 0  0.3125 0.375 0  0.34375 0.375 0  0.375 0.375 0  0.40625 0.375 0  0.4375 0.375 0  0.46875 0.375 0  0.5 0.375 0  0.53125 0.375 0  0.5625 0.375 0  0.59375 0.375 0  0.625 0.375 0  0.65625 0.375 0  0.6875 0.375 0  0.71875 0.375 0  0.75 0.375 0  0.78125 0.375 0  0.8125 0.375 0  0.84375 0.375 0  0.875 0.375 0  0.90625 0.375 0  0.9375 0.375 0  0.96875 0.375 0  1 0.375 0  0 0.40625 0  0.03125 0.40625 0  0.0625 0.40625 0  0.09375 0.40625 0  0.125 0.40625 0  0.15625 0.40625 0  0.1875 0.40625 0  0.21875 0.40625 0  0.25 0.40625 0  0.28125 0.40625 0  0.3125 0.40625 0  0.34375 0.40625 0  0.375 0.40625 0  0.40625 0.40625 0  0.4375 0.40625 0  0.46875 0.40625 0  0.5 0.40625 0  0.53125 0.40625 0  0.5625 0.40625 0  0.59375 0.40625 0  0.625 0.40625 0  0.65625 0.40625 0  0.6875 0.40625 0  0.71875 0.40625 0  0.75 0.40625 0  0.78125 0.40625 0  0.8125 0.40625 0  0.84375 0.40625 0  0.875 0.40625 0  0.90625 0.40625 0  0.9375 0.40625 0  0.96875 0.40625 0  1 0.40625 0  0 0.4375 0  0.03125 0.4375 0  0.0625 0.4375 0  0.09375 0.4375 0  0.125 0.4375 0  0.15625 0.4375 0  0.1875 0.4375 0  0.21875 0.4375 0  0.25 0.4375 0  0.28125 0.4375 0  0.3125 0.4375 0  0.34375 0.4375 0  0.375 0.4375 0  0.40625 0.4375 0  0.4375 0.4375 0  0.46875 0.4375 0  0.5 0.4375 0  0.53125 0.4375 0  0.5625 0.4375 0  0.59375 0.4375 0  0.625 0.4375 0  0.65625 0.4375 0  0.6875 0.4375 0  0.71875 0.4375 0  0.75 0.4375 0  0.78125 0.4375 0  0.8125 0.4375 0  0.84375 0.4375 0  0.875 0.4375 0  0.90625 0.4375 0  0.9375 0.4375 0  0.96875 0.4375 0  1 0.4375 0  0 0.46875 0  0.03125 0.46875 0  0.0625 0.46875 0  0.09375 0.46875 0  0.125 0.46875 0  0.15625 0.46875 0  0.1875 0.46875 0  0.21875 0.46875 0  0.25 0.46875 0  0.28125 0.46875 0  0.3125 0.46875 0  0.34375 0.46875 0  0.375 0.46875 0  0.40625 0.46875 0  0.4375 0.46875 0  0.46875 0.46875 0  0.5 0.46875 0  0.53125 0.46875 0  0.5625 0.46875 0  0.59375 0.46875 0  0.625 0.46875 0  0.65625 0.46875 0  0.6875 0.46875 0  0.71875 0.46875 0  0.75 0.46875 0  0.78125 0.46875 0  0.8125 0.46875 0  0.84375 0.46875 0  0.875 0.46875 0  0.90625 0.46875 0  0.9375 0.46875 0  0.96875 0.46875 0  1 0.46875 0  0 0.5 0  0.03125 0.5 0  0.0625 0.5 0  0.09375 0.5 0  0.125 0.5 0  0.15625 0.5 0  0.1875 0.5 0  0.21875 0.5 0  0.25 0.5 0  0.28125 0.5 0  0.3125 0.5 0  0.34375 0.5 0  0.375 0.5 0  0.40625 0.5 0  0.4375 0.5 0  0.46875 0.5 0  0.5 0.5 0  0.53125 0.5 0  0.5625 0.5 0  0.59375 0.5 0  0.625 0.5 0  0.65625 0.5 0  0.6875 0.5 0  0.71875 0.5 0  0.75 0.5 0  0.78125 0.5 0  0.8125 0.5 0  0.84375 0.5 0  0.875 0.5 0  0.90625 0.5 0  0.9375 0.5 0  0.96875 0.5 0  1 0.5 0  0 0.53125 0  0.03125 0.53125 0  0.0625 0.53125 0  0.09375 0.53125 0  0.125 0.53125 0  0.15625 0.53125 0  0.1875 0.53125 0  0.21875 0.53125 0  0.25 0.53125 0  0.28125 0.53125 0  0.3125 0.53125 0  0.34375 0.53125 0  0.375 0.53125 0  0.40625 0.53125 0  0.4375 0.53125 0  0.46875 0.53125 0  0.5 0.53125 0  0.53125 0.53125 0  0.5625 0.53125 0  0.59375 0.53125 0  0.625 0.53125 0  0.65625 0.53125 0  0.6875 0.53125 0  0.71875 0.53125 0  0.75 0.53125 0  0.78125 0.531
[...]
<PointData  Scalars="ControlVisualisation"> 
<DataArray  type="Float64"  Name="ControlVisualisation"  format="ascii">6.4114599158771257e-01  6.2309432453243441e-01  6.2187601301832063e-01  6.0160433083978004e-01  5.8286128026644490e-01  5.6737452777596287e-01  5.5033267093778759e-01  5.2388074148645869e-01  4.9319470632894935e-01  4.6044666301427151e-01  4.2847602793286366e-01  3.9782429217036380e-01  3.7003600026506439e-01  3.4741758198501588e-01  3.3011730095524033e-01  3.1923151500955782e-01  3.1532870980572481e-01  3.1844461413779240e-01  3.2872556440293477e-01  3.4539071572378588e-01  3.6802494023281873e-01  3.9496436551538522e-01  4.2501548460596672e-01  4.5755173394516618e-01  4.8976935108851405e-01  5.2063575667075945e-01  5.4707990543775831e-01  5.6348140733626639e-01  5.7782467465734255e-01  5.9762357710833502e-01  6.2254362606842828e-01  6.2458803020842768e-01  6.4024138965678923e-01  6.2856414872631672e-01  6.4914544459752344e-01  6.3488230380593291e-01  5.9588061769248224e-01  5.8190693980928110e-01  5.7574316878791121e-01  5.4878249334074913e-01  5.2537150283535050e-01  4.9447836126709138e-01  4.6328762078139396e-01  4.2977516900129742e-01  3.9924057833351928e-01  3.7265921824750148e-01  3.4892856402702505e-01  3.3206548473144737e-01  3.2142761482176047e-01  3.1704723799681811e-01  3.2022399457063205e-01  3.3001285046153300e-01  3.4739594481372643e-01  3.6960443587500219e-01  3.9653676404773286e-01  4.2722923946389574e-01  4.5789849946022254e-01  4.9181448590709065e-01  5.2249129998747212e-01  5.4544741506034833e-01  5.7069837297689241e-01  5.7834066438691989e-01  5.9395978670064586e-01  6.3322353039140322e-01  6.4906479506814929e-01  6.2981618729697075e-01  6.4242323278016711e-01  6.4848542203321879e-01  5.8943632065651652e-01  6.2321582875972292e-01  6.0446434804550475e-01  5.6383250160903020e-01  5.5419848536591010e-01  5.2543606784321195e-01  4.9658058474978695e-01  4.6292718704718117e-01  4.3100280877107400e-01  3.9878597169571012e-01  3.7034146093035764e-01  3.4634263138131283e-01  3.2788167592311612e-01  3.1593466796186487e-01  3.1181974997938494e-01  3.1496594577404630e-01  3.2615112287902476e-01  3.4373749675480025e-01  3.6706397494369647e-01  3.9595427001845801e-01  4.2700375332859181e-01  4.6081494489444286e-01  4.9233566125549799e-01  5.2256059932010257e-01  5.5006098987381180e-01  5.6207792664877843e-01  5.9861098347765795e-01  6.1941101074161509e-01  5.9145758760448419e-01  6.4651163663388755e-01  6.4314024286701377e-01  6.4298977537327218e-01  6.3085997944239236e-01  6.4426822170981402e-01  6.5313902255638867e-01  5.8366440729685631e-01  5.8599292875258890e-01  5.5444188253299165e-01  5.2808398783324184e-01  4.9427958812571082e-01  4.5937004815097598e-01  4.2278168048620846e-01  3.9013067658595263e-01  3.5923326190133842e-01  3.3445867057782758e-01  3.1508100582942733e-01  3.0284282608799201e-01  2.9842670147553330e-01  3.0120740235189436e-01  3.1302891386292714e-01  3.3116832523085910e-01  3.5658248813420546e-01  3.8596352983423682e-01  4.1958248588541641e-01  4.5503008902728043e-01  4.9122366252418059e-01  5.2408264881155442e-01  5.5108298551277135e-01  5.8123932003866552e-01  5.8244103843757999e-01  6.4617442905674838e-01  6.4148650943505547e-01  6.3008877318926304e-01  6.4031520443260226e-01  6.4913327252340025e-01  6.4286330392858504e-01  6.5485811457199428e-01  6.1343409413654604e-01  6.0443223083710607e-01  5.7164363009190811e-01  5.4735562898875922e-01  5.2126204765431261e-01  4.8952171455645455e-01  4.5317338034154492e-01  4.1922842681150424e-01  3.8462876051768013e-01  3.5582144720536801e-01  3.3030509917741685e-01  3.1106214147427036e-01  2.9898148458924023e-01  2.9395923811022900e-01  2.9841351601647559e-01  3.0837946621541962e-01  3.2830529172198031e-01  3.5301062170978881e-01  3.8316245761001388e-01  4.1662055489648775e-01  4.5209877863597142e-01  4.8701683138666574e-01  5.1973217701977636e-01  5.4651603889425615e-01  5.6985185280399364e-01  6.0046600480661805e-01  6.1425025122436960e-01  6.4967665944804665e-01  6.4166919269183276e-01  6.4655026790961001e-01  6.6510342020663538e-01  6.6758928994995181e-01  6.4616859756133194e-01  6.4932408010772780e-01  6.0169395233960155e-01  5.7603028213588248e-01  5.5019849572481294e-01  5.1907933310339871e-01  4.8342523789411951e-01  4.4281292369662756e-01  4.0355960312507527e-01  3.6802036319677328e-01  3.3391300207307223e-01  3.0745447687003197e-01  2.8628298607675728e-01  2.7285781509326534e-01  2.6787150152001438e-01  2.7111309979799408e-01  2.8472693516281439e-01  3.0391830717466739e-01  3.3189837652743576e-01  3.6517016195238639e-01  4.0150803728554185e-01  4.4152661523558284e-01  4.8173896344201195e-01  5.1785287808653724e-01  5.4853211381393341e-01  5.7471065982164982e-01  6.0114377252807949e-01  6.4629162508122273e-01  6.4604804533300841e-01  6.6552456601872989e-01  6.6376992864855555e-01  6.8593037872470852e-01  6.7857833059349681e-01  6.7346520795929110e-01  6.5671180689505659e-01  6.1256023751147459e-01  5.8438547727032220e-01  5.5341543371901547e-01  5.1842280203612234e-01  4.7477321589671695e-01  4.3074995660596893e-01  3.8420613848793433e-01  3.4417266273660041e-01  3.0818763453873160e-01  2.7738292080714466e-01  2.5501353102160251e-01  2.4017905762606467e-01  2.3499276959943180e-01  2.3857587531334815e-01  2.5210567426024355e-01  2.7492715579148636e-01  3.0440884707698940e-01  3.4076244967761998e-01  3.8299946691191089e-01  4.2745001695063939e-01  4.7408044187042109e-01  5.1628866349568581e-01  5.5238026642045213e-01  5.8292675468883082e-01  6.1166295675208715e-01  6.5517155946326466e-01  6.7249779761056383e-01  6.7771328929639962e-01  6.8513795378205045e-01  7.0230217785300519e-01  6.9811719245176107e-01  6.8812142571964496e-01  6.7154399962886235e-01  6.2693598933722960e-01  5.9253901698086675e-01  5.5775641173006185e-01  5.1510875939993339e-01  4.6668937823732298e-01  4.1314791283571356e-01  3.6429310442995810e-01  3.1659761889348764e-01  2.7819326953328560e-01  2.4525907539886771e-01  2.2068837498031263e-01  2.0539387555729949e-01  1.9946792565464869e-01  2.0412255353941791e-01  2.1772979730006864e-01  2.4171990001227417e-01  2.7415777366978078e-01  3.1413055637165677e-01  3.6000423985154517e-01  4.1146696763758267e-01  4.6409904100313915e-01  5.1409534879550112e-01  5.5529107387696786e-01  5.9186965554823223e-01  6.2438678345988774e-01  6.7144175046101062e-01  6.8689212799642507e-01  6.9768063998567298e-01  7.0176169805356436e-01  7.1729305659310250e-01  7.1287447646216373e-01  7.0335480187673460e-01  6.8690695793641277e-01  6.3613379888463695e-01  6.0010066868905643e-01  5.5807905673506963e-01  5.1164978002328743e-01  4.5438047013739480e-01  3.9628847725867394e-01  3.3958476482441741e-01  2.9016318887447501e-01  2.4678416714846041e-01  2.1315452033805163e-01  1.8785214280918178e-01  1.7199396681081258e-01  1.6612687020568886e-01  1.7053119159313729e-01  1.8518276661130717e-01  2.0947429168016884e-01  2.4364428401627752e-01  2.8585325084648533e-01  3.3701805994045075e-01  3.9317910037754350e-01  4.5348956440732063e-01  5.0898413692557321e-01  5.5712180055977978e-01  5.9770173769642132e-01  6.3506798083954341e-01  6.8526460609913808e-01  7.0291803869475755e-01  7.1224565705823928e-01  7.1691208348475566e-01  7.3097843800135820e-01  7.2610311794770666e-01  7.1729669248537931e-01  6.9729065102728560e-01  6.4515192410444877e-01  6.0319781391538496e-01  5.5795183501028345e-01  5.0409290551530461e-01  4.4260795644724782e-01  3.7671738887748563e-01  3.1585281497143536e-01  2.6162154335994281e-01  2.1666312841778931e-01  1.8070508159340598e-01  1.5531061614478045e-01  1.3988135191394291e-01  1.3410926775628063e-01  1.3821481041510811e-01  1.5282508013478499e-01  1.7786762043215881e-01  2.1318039327508850e-01  2.5848001710344481e-01  3.1289404251523223e-01  3.7497753935027905e-01  4.4017109150299899e-01  5.0371528566634205e-01  5.5554936751145501e-01  6.0218232956020423e-01  6.4287518618548622e-01  6.9674185605942651e-01  7.1579541242808487e-01  7.2678848402628871e-01  7.3019934298906086e-01  7.4306020201120526e-01  7.3852280971766227e-01  7.2827946879186978e-01  7.0768459973096853e-01  6.5017084918100354e-01  6.0665421463992919e-01  5.5511753500818029e-01  4.9742143456740373e-01  4.2882973077835446e-01  3.5852874383059524e-01  2.9182237366331881e-01  2.3385131668414741e-01  1.8607867799332012e-01  1.4924657765575330e-01  1.2315307344342014e-01  1.0838245174164132e-01  1.0267649592875108e-01  1.0687295566941379e-01  1.2105212844659842e-01  1.4628575567968427e-01  1.8364199113817345e-01  2.3124789161782683e-01  2.9002336943097706e-01  3.5687083197666530e-01  4.2787978257669129e-01  4.9576398760678314e-01  5.5474753727302428e-01  6.0378924856781002e-01  6.4935561013792620e-01  7.0626413788304232e-01  7.2793022807208163e-01  7.3753087923605698e-01  7.4243110201228413e-01  7.5358386376406217e-01  7.4871797856032973e-01  7.3765056471380064e-01  7.1575641626714159e-01  6.5511604753123986e-01  6.0695835483539884e-01  5.5326363514154975e-01  4.8943071450182651e-01  4.1708248693059308e-01  3.4107603360489369e-01  2.7008939664171705e-01  2.0789832693235741e-01  1.5698696057924313e-01  1.1907506377768232e-01  9.3079953372497262e-02  7.8311914284891593e-02  7.3751105190192068e-02  7.7038885260556259e-02  9.1302216471687583e-02  1.1674584114353984e-01  1.5534931926939108e-01  2.0664815909197176e-01  2.6866431559453052e-01  3.4049792926813016e-01  4.1638289036129461e-01  4.8894370501452600e-01  5.5139519268102299e-01  6.0601737137200529e-01  6.5358424066082410e-01  7.1445701766694791e-01  7.3715643051878044e-01  7.4779940881222906e-01  7.5244086670752175e-01  7.6204941760067169e-01  7.5723214669815375e-01  7.4576006137493212e-01  7.2142451287251586e-01  6.5918292555555091e-01  6.0714796727141818e-01  5.4995087815829335e-01  4.8367944507410104e-01  4.0640870734725026e-01  3.2646821323539166e-01  2.5072407356042192e-01  1.8511660014554759e-01  1.3134444177639276e-01  9.1596368637567233e-02  6.6277714125076242e-02  5.1951831970252375e-02  4.7533579296131952e-02  5.1438779976100107e-02  6.4208619638572273e-02  9.0762845441872880e-02  1.3083097527381271e-01  1.8484184356303299e-01  2.5073475889301472e-01  3.2618231887573956e-01  4.0625709663312659e-01  4.8294054940741959e-01  5.4906118753982858e-01  6.0597615505959090e-01  6.5773736248339087e-01  7.2010682798265579e-01  7.4480057040703729e-01  7.5642880095436360e-01  7.6054639357317566e-01  7.6838467369741648e-01  7.6363721219023784e-01  7.5146303342360887e-01  7.2682248448424958e-01  6.6081784664819920e-01  6.0810918467226860e-01  5.4725205231276941e-01  4.7826526589628254e-01  3.9822316262159152e-01  3.1460205890110177e-01  2.3564961853391386e-01  1.6631974701014374e-01  1.1020096298691648e-01  6.8804386858977357e-02  4.3316127637027621e-02  3.1017402661709922e-02  2.6572205073812472e-02  3.0188675156483137e-02  4.3020797628867652e-02  6.8699104020236851e-02  1.1060828119510849e-01  1.6718974719299870e-01  2.3631350597105372e-01  3.1482506871848631e-01  3.9820421810698420e-01  4.7778842160817220e-01  5.4698908075615971e-01  6.0670128751756525e-01  6.5988566804379556e-01  7.2528507748826532e-01  7.5026600008718058e-01  7.6225139393633778e-01  7.6707935707569674e-01  7.7264496339908595e-01  7.6749134433187671e-01  7.5637119840095146e-01  7.2959344928169123e-01  6.6347128808427869e-01  6.0756116087519141e-01  5.4586772310992226e-01  4.7457887685902889e-01  3.9219793659803454e-01  3.0645346852422917e-01  2.2412704494084384e-01  1.5229340923677953e-01  9.4302413866129697e-02  5.2312873128439366e-02  2.6788774650487221e-02  1.5135161869715467e-02  1.2016314622446601e-02  1.5005336155286070e-02  2.6842276018783175e-02  5.3357338839122720e-02  9.5287753101735290e-02  1.5429776131666623e-01  2.2534812816092947e-01  3.0667339399018945e-01  3.9220493758437691e-01  4.7465324314797430e-01  5.4515583892470088e-01  6.0729733815913822e-01  6.6170222970662718e-01  7.2829462327245187e-01  7.5449412992279541e-01  7.6642818217449049e-01  7.7141494303816505e-01  7.7479583786896067e-01  7.7004023447063585e-01  7.5854959787473808e-01  7.3191464653190674e-01  6.6434562439694067e-01  6.0795816633853816e-01  5.4514113114971052e-01  4.7231982603066908e-01  3.8908914285256818e-01  3.0063708413891282e-01  2.1835288795027488e-01  1.4340359845831208e-01  8.4672684215349001e-02  4.1743170458215420e-02  1.6891018673634739e-02  5.8436757725696259e-03  3.2532661524538806e-03  5.9838055879327043e-03  1.7363042600064132e-02  4.2861767124446414e-02  8.7150689103725434e-02  1.4523728675867770e-01  2.1906573055681225e-01  3.0124154419273708e-01  3.8901810512689072e-01  4.7212554637519699e-01  5.4468940114753395e-01  6.0751990917552334e-01  6.6315589986797030e-01  7.2989164680726304e-01  7.5708659402063150e-01  7.6870149192197779e-01  7.7382048926720348e-01  7.7527716862134055e-01  7.7040632090504291e-01  7.5919786907882103e-01  7.3298028787338110e-01  6.6461995671318663e-01  6.0840721805219133e-01  5.4474636095270046e-01  4.7215144872722326e-01  3.8809774728631963e-01  2.9931305804640251e-01  2.1523932568206205e-01  1.4195602433944593e-01  8.0462087085622663e-02  3.8433244653665280e-02  1.3140237479541746e-02  2.4288621776309277e-03  6.6518319612463017e-06  2.4504267246653402e-03  1.4011087042934987e-02  3.9503658953367618e-02  8.3204217289153920e-02  1.4348419576564328e-01  2.1617737677576068e-01  2.9966334357553004e-01  3.8729503185774644e-01  4.7174566352591535e-01  5.4425146004898961e-01  6.0744151389462309e-01  6.6407931067238035e-01  7.3074157409476037e-01  7.5739114707858202e-01  7.6970273228520047e-01  7.7449618949767796e-01  7.7394052849377004e-01  7.6950956768928069e-01  7.5810361445371155e-01  7.3189569950578359e-01  6.6455438236078057e-01  6.0862120892713734e-01  5.4563274275577855e-01  4.7312868764647320e-01  3.8960230636375293e-01  3.0225199969411665e-01  2.1711117252266052e-01  1.4426722428626215e-01  8.4522437224102465e-02  4.0918441555726583e-02  1.6017991673534092e-02  4.6068457405041910e-03  1.6651746511299678e-03  4.9112652630368195e-03  1.5961282082888030e-02  4.3011775332529943e-02  8.6031878841716675e-02  1.4577208042804238e-01  2.1853598992843482e-01  3.0135264693609720e-01  3.8843580932595301e-01  4.7189108391802115e-01  5.4528455837876610e-01  6.0711629186515159e-01  6.6351965259722046e-01  7.3029141557720501e-01  7.5709986984024025e-01  7.6846352451399846e-01  7.7373024429679016e-01  7.7106698405817720e-01  7.6686211110450397e-01  7.5555530490861988e-01  7.2970652439916484e-01  6.6395968473343170e-01  6.0798870654217196e-01  5.4758325045758915e-01  4.7551499116367307e-01  3.9374200621164013e-01  3.0706922572084477e-01  2.2564418456430271e-01  1.5184844760703725e-01  9.4145486838928205e-02  5.0633682163049164e-02  2.4991661897415862e-02  1.2785590807360081e-02  9.3590717692363587e-03  1.2443562993389334e-02  2.5561094202508003e-02  5.1744320730872033e-02  9.5609068069464814e-02  1.5324139238647008e-01  2.2522473551457339e-01  3.0614203116844035e-01  3.9250056128645544e-01  4.7409601124971529e-01  5.4529285890302248e-01  6.0804727377168011e-01  6.6207574385688062e-01  7.2867672804910322e-01  7.5387553656294704e-01  7.6644480513914737e-01  7.7102998561010827e-01  7.6687660294918580e-01  7.6171104332791739e-01  7.5125789512187202e-01  7.2660199912380485e-01  6.6167290124298317e-01  6.0897417673819687e-01  5.4832721380063432e-01  4.8074887043415182e-01  3.9936852792303096e-01  3.1642082981626685e-01  2.3588855254723173e-01  1.6670613889183639e-01  1.0887251459576583e-01  6.7614201265610380e-02  4.0271776948831425e-02  2.7361021290619382e-02  2.3358257089767354e-02  2.7508808202633579e-02  4.0820000192754828e-02  6.7921761654784391e-02  1.0981198487698027e-01  1.6687278185202398e-01  2.3578901103424102e-01  3.1468461189940955e-01  3.9786314441114967e-01  4.7840257838598432e-01  5.4696302125285712e-01  6.0745701736187796e-01  6.6070905294616356e-01  7.2455648602019274e-01  7.5056846615392869e-01  7.6132527655250304e-01  7.6669434308315487e-01  7.6040870046076747e-01  7.5601939140609919e-01  7.4553089399344286e-01  7.2158554098278405e-01  6.5905873234775669e-01  6.0835986950350196e-01  5.5140071148244929e-01  4.8526714480743460e-01  4.0900662373759000e-01  3.2731813502424945e-01  2.5236013394344181e-01  1.8414358915407905e-01  1.3056583975358457e-01  8.9323675799022687e-02  6.3016946225270279e-02  4.8277212858918103e-02  4.4283919230948661e-02  4.8563310571950555e-02  6.3182047477211289e-02  8.9690561189061366e-02  1.3007179355868687e-01  1.8426744982545565e-01  2.5050785616611099e-01  3.2660730669281629e-01  4.0613902763191145e-01  4.8369197333660208e-01  5.4968323517022633e-01  6.0677497028064498e-01  6.5828009935064269e-01  7.1983458311085013e-01  7.4401504029387611e-01  7.5487366935989153e-01  7.6023792803449530e-01  7.5208615157109282e-01  7.4799783090702232e-01  7.3708315952319114e-01  7.1577147955528675e-01  6.5517821815804644e-01  6.0817343105960830e-01  5.5401925094650384e-01  4.9165913686461488e-01  4.1932735991441256e-01  3.4273673864112969e-01  2.7006863551040367e-01  2.0821677162791155e-01  1.5534342674087465e-01  1.1682793450168401e-01  9.0063643254069764e-02  7.5372781086414958e-02  7.0800184600583946e-02  7.5384896428685427e-02  9.0061139062074455e-02  1.1642781747232731e-01  1.5533372423468125e-01  2.0610577850035106e-01  2.6889471286258215e-01  3.4082105988755823e-01  4.1718834428702906e-01  4.8922640275679774e-01  5.5286670264394533e-01  6.0628940184255631e-01  6.5414029709679711e-01  7.1394246543348361e-01  7.3546021790014871e-01  7.4760640764073383e-01  7.5143650283847163e-01  7.4188012538248094e-01  7.3766503018624874e-01  7.2774075511965619e-01  7.0786419365490005e-01  6.5052087114373858e-01  6.0568077575389256e-01  5.5743336559419665e-01  4.9869707907238742e-01  4.3119477669716727e-01  3.6025891670475862e-01  2.9210196433292024e-01  2.3285220549976948e-01  1.8509137548260385e-01  1.4704304715704494e-01  1.2099433885004951e-01  1.0588420286630247e-01  1.0066991731841968e-01  1.0621662481837399e-01  1.2061273226166189e-01  1.4664023081455993e-01  1.8304769777724514e-01  2.3209807928218029e-01  2.9041467728655590e-01  3.5760622027691147e-01  4.2871249963918939e-01  4.9719716202278558e-01  5.5464442497743072e-01  6.0522127854426389e-01  6.4962452832995587e-01  7.0529495239877615e-01  7.2648300388013032e-01  7.3668475381111576e-01  7.4130126697757104e-01  7.2980025680179506e-01  7.2620303987954382e-01  7.1678232399215591e-01  6.9734846855735810e-01  6.4478239683657801e-01  6.0371037881795453e-01  5.5787420924629916e-01  5.0682718388074921e-01  4.4338732134436704e-01  3.7832498011196158e-01  3.1633133012341152e-01  2.6063523062892996e-01  2.1481243341502115e-01  1.7918665460029007e-01  1.5366774965189359e-01  1.3820370987602046e-01  1.3320227523118436e-01  1.3769270996897093e-01  1.5334699279783121e-01  1.7808976674073090e-01  2.1422183315108301e-01  2.5898166829518177e-01  3.1430325404905862e-01  3.7590391026557479e-01  4.4163445197246826e-01  5.0306290792159036e-01  5.5761941176021479e-01  6.0197409897063547e-01  6.4309135785830973e-01  6.9647375969301673e-01  7.1493158056907335e-01  7.2455153921439230e-01  7.2939197246245213e-01  7.1663351232399164e-01  7.1241781216311428e-01  7.0363664794837821e-01  6.8726801601526555e-01  6.3566229728624768e-01  5.9973969170278019e-01  5.5878240300596516e-01  5.1165559643014025e-01  4.5697267195961233e-01  3.9648047734927894e-01  3.3974446532640862e-01  2.8872430993259307e-01  2.4603075006332187e-01  2.1132276132753969e-01  1.8625337692917429e-01  1.7100910305558520e-01  1.6594224801204041e-01  1.7076840482463010e-01  1.8544826778529255e-01  2.1080187486676927e-01  2.4449016382886699e-01  2.8748354831397210e-01  3.3803497241341462e-01  3.9422660016620314e-01  4.5418655187192847e-01  5.1001746542395499e-01  5.5648983469408264e-01  5.9944884130055642e-01  6.3455905531210466e-01  6.8469638294358581e-01  7.0224696027398537e-01  7.1129126459698866e-01  7.1591029616286739e-01  7.0191384313236027e-01  6.9761148364450387e-01  6.8870049282789869e-01  6.723675764