<?xml version="1.0"?>
<VTKFile type="UnstructuredGrid"  version="0.1"  >
<UnstructuredGrid>
<Piece  NumberOfPoints="1089" NumberOfCells="2048">
<Points>
<DataArray  type="Float64"  NumberOfComponents="3"  format="ascii">0 0 0  0.03125 0 0  0.0625 0 0  0.09375 0 0  0.125 0 0  0.15625 0 0  0.1875 0 0  0.21875 0 0  0.25 0 0  0.28125 0 0  0.3125 0 0  0.34375 0 0  0.375 0 0  0.40625 0 0  0.4375 0 0  0.46875 0 0  0.5 0 0  0.53125 0 0  0.5625 0 0  0.59375 0 0  0.625 0 0  0.65625 0 0  0.6875 0 0  0.71875 0 0  0.75 0 0  0.78125 0 0  0.8125 0 0  0.84375 0 0  0.875 0 0  0.90625 0 0  0.9375 0 0  0.96875 0 0  1 0 0  0 0.03125 0  0.03125 0.03125 0  0.0625 0.03125 0  0.09375 0.03125 0  0.125 0.03125 0  0.15625 0.03125 0  0.1875 0.03125 0  0.21875 0.03125 0  0.25 0.03125 0  0.28125 0.03125 0  0.3125 0.03125 0  0.34375 0.03125 0  0.375 0.03125 0  0.40625 0.03125 0  0.4375 0.03125 0  0.46875 0.03125 0  0.5 0.03125 0  0.53125 0.03125 0  0.5625 0.03125 0  0.59375 0.03125 0  0.625 0.03125 0  0.65625 0.03125 0  0.6875 0.03125 0  0.71875 0.03125 0  0.75 0.03125 0  0.78125 0.03125 0  0.8125 0.03125 0  0.84375 0.03125 0  0.875 0.03125 0  0.90625 0.03125 0  0.9375 0.03125 0  0.96875 0.03125 0  1 0.03125 0  0 0.0625 0  0.03125 0.0625 0  0.0625 0.0625 0  0.09375 0.0625 0  0.125 0.0625 0  0.15625 0.0625 0  0.1875 0.0625 0  0.21875 0.0625 0  0.25 0.0625 0  0.28125 0.0625 0  0.3125 0.0625 0  0.34375 0.0625 0  0.375 0.0625 0  0.40625 0.0625 0  0.4375 0.0625 0  0.46875 0.0625 0  0.5 0.0625 0  0.53125 0.0625 0  0.5625 0.0625 0  0.59375 0.0625 0  0.625 0.0625 0  0.65625 0.0625 0  0.6875 0.0625 0  0.71875 0.0625 0  0.75 0.0625 0  0.78125 0.0625 0  0.8125 0.0625 0  0.84375 0.0625 0  0.875 0.0625 0  0.90625 0.0625 0  0.9375 0.0625 0  0.96875 0.0625 0  1 0.0625 0  0 0.09375 0  0.03125 0.09375 0  0.0625 0.09375 0  0.09375 0.09375 0  0.125 0.09375 0  0.15625 0.09375 0  0.1875 0.09375 0  0.21875 0.09375 0  0.25 0.09375 0  0.28125 0.09375 0  0.3125 0.09375 0  0.34375 0.09375 0  0.375 0.09375 0  0.40625 0.09375 0  0.4375 0.09375 0  0.46875 0.09375 0  0.5 0.09375 0  0.53125 0.09375 0  0.5625 0.09375 0  0.59375 0.09375 0  0.625 0.09375 0  0.65625 0.09375 0  0.6875 0.09375 0  0.71875 0.09375 0  0.75 0.09375 0  0.78125 0.09375 0  0.8125 0.09375 0  0.84375 0.09375 0  0.875 0.09375 0  0.90625 0.09375 0  0.9375 0.09375 0  0.96875 0.09375 0  1 0.09375 0  0 0.125 0  0.03125 0.125 0  0.0625 0.125 0  0.09375 0.125 0  0.125 0.125 0  0.15625 0.125 0  0.1875 0.125 0  0.21875 0.125 0  0.25 0.125 0  0.28125 0.125 0  0.3125 0.125 0  0.34375 0.125 0  0.375 0.125 0  0.40625 0.125 0  0.4375 0.125 0  0.46875 0.125 0  0.5 0.125 0  0.53125 0.125 0  0.5625 0.125 0  0.59375 0.125 0  0.625 0.125 0  0.65625 0.125 0  0.6875 0.125 0  0.71875 0.125 0  0.75 0.125 0  0.78125 0.125 0  0.8125 0.125 0  0.84375 0.125 0  0.875 0.125 0  0.90625 0.125 0  0.9375 0.125 0  0.96875 0.125 0  1 0.125 0  0 0.15625 0  0.03125 0.15625 0  0.0625 0.15625 0  0.09375 0.15625 0  0.125 0.15625 0  0.15625 0.15625 0  0.1875 0.15625 0  0.21875 0.15625 0  0.25 0.15625 0  0.28125 0.15625 0  0.3125 0.15625 0  0.34375 0.15625 0  0.375 0.15625 0  0.40625 0.15625 0  0.4375 0.15625 0  0.46875 0.15625 0  0.5 0.15625 0  0.53125 0.15625 0  0.5625 0.15625 0  0.59375 0.15625 0  0.625 0.15625 0  0.65625 0.15625 0  0.6875 0.15625 0  0.71875 0.15625 0  0.75 0.15625 0  0.78125 0.15625 0  0.8125 0.15625 0  0.84375 0.15625 0  0.875 0.15625 0  0.90625 0.15625 0  0.9375 0.15625 0  0.96875 0.15625 0  1 0.15625 0  0 0.1875 0  0.03125 0.1875 0  0.0625 0.1875 0  0.09375 0.1875 0  0.125 0.1875 0  0.15625 0.1875 0  0.1875 0.1875 0  0.21875 0.1875 0  0.25 0.1875 0  0.28125 0.1875 0  0.3125 0.1875 0  0.34375 0.1875 0  0.375 0.1875 0  0.40625 0.1875 0  0.4375 0.1875 0  0.46875 0.1875 0  0.5 0.1875 0  0.53125 0.1875 0  0.5625 0.1875 0  0.59375 0.1875 0  0.625 0.1875 0  0.65625 0.1875 0  0.6875 0.1875 0  0.71875 0.1875 0  0.75 0.1875 0  0.78125 0.1875 0  0.8125 0.1875 0  0.84375 0.1875 0  0.875 0.1875 0  0.90625 0.1875 0  0.9375 0.1875 0  0.96875 0.1875 0  1 0.1875 0  0 0.21875 0  0.03125 0.21875 0  0.0625 0.21875 0  0.09375 0.21875 0  0.125 0.21875 0  0.15625 0.21875 0  0.1875 0.21875 0  0.21875 0.21875 0  0.25 0.21875 0  0.28125 0.21875 0  0.3125 0.21875 0  0.34375 0.21875 0  0.375 0.21875 0  0.40625 0.21875 0  0.4375 0.21875 0  0.46875 0.21875 0  0.5 0.21875 0  0.53125 0.21875 0  0.5625 0.21875 0  0.59375 0.21875 0  0.625 0.21875 0  0.65625 0.21875 0  0.6875 0.21875 0  0.71875 0.21875 0  0.75 0.21875 0  0.78125 0.21875 0  0.8125 0.21875 0  0.84375 0.21875 0  0.875 0.21875 0  0.90625 0.21875 0  0.9375 0.21875 0  0.96875 0.21875 0  1 0.21875 0  0 0.25 0  0.03125 0.25 0  0.0625 0.25 0  0.09375 0.25 0  0.125 0.25 0  0.15625 0.25 0  0.1875 0.25 0  0.21875 0.25 0  0.25 0.25 0  0.28125 0.25 0  0.3125 0.25 0  0.34375 0.25 0  0.375 0.25 0  0.40625 0.25 0  0.4375 0.25 0  0.46875 0.25 0  0.5 0.25 0  0.53125 0.25 0  0.5625 0.25 0  0.59375 0.25 0  0.625 0.25 0  0.65625 0.25 0  0.6875 0.25 0  0.71875 0.25 0  0.75 0.25 0  0.78125 0.25 0  0.8125 0.25 0  0.84375 0.25 0  0.875 0.25 0  0.90625 0.25 0  0.9375 0.25 0  0.96875 0.25 0  1 0.25 0  0 0.28125 0  0.03125 0.28125 0  0.0625 0.28125 0  0.09375 0.28125 0  0.125 0.28125 0  0.15625 0.28125 0  0.1875 0.28125 0  0.21875 0.28125 0  0.25 0.28125 0  0.28125 0.28125 0  0.3125 0.28125 0  0.34375 0.28125 0  0.375 0.28125 0  0.40625 0.28125 0  0.4375 0.28125 0  0.46875 0.28125 0  0.5 0.28125 0  0.53125 0.28125 0  0.5625 0.28125 0  0.59375 0.28125 0  0.625 0.28125 0  0.65625 0.28125 0  0.6875 0.28125 0  0.71875 0.28125 0  0.75 0.28125 0  0.78125 0.28125 0  0.8125 0.28125 0  0.84375 0.28125 0  0.875 0.28125 0  0.90625 0.28125 0  0.9375 0.28125 0  0.96875 0.28125 0  1 0.28125 0  0 0.3125 0  0.03125 0.3125 0  0.0625 0.3125 0  0.09375 0.3125 0  0.125 0.3125 0  0.15625 0.3125 0  0.1875 0.3125 0  0.21875 0.3125 0  0.25 0.3125 0  0.28125 0.3125 0  0.3125 0.3125 0  0.34375 0.3125 0  0.375 0.3125 0  0.40625 0.3125 0  0.4375 0.3125 0  0.46875 0.3125 0  0.5 0.3125 0  0.53125 0.3125 0  0.5625 0.3125 0  0.59375 0.3125 0  0.625 0.3125 0  0.65625 0.3125 0  0.6875 0.3125 0  0.71875 0.3125 0  0.75 0.3125 0  0.78125 0.3125 0  0.8125 0.3125 0  0.84375 0.3125 0  0.875 0.3125 0  0.90625 0.3125 0  0.9375 0.3125 0  0.96875 0.3125 0  1 0.3125 0  0 0.34375 0  0.03125 0.34375 0  0.0625 0.34375 0  0.09375 0.34375 0  0.125 0.34375 0  0.15625 0.34375 0  0.1875 0.34375 0  0.21875 0.34375 0  0.25 0.34375 0  0.28125 0.34375 0  0.3125 0.34375 0  0.34375 0.34375 0  0.375 0.34375 0  0.40625 0.34375 0  0.4375 0.34375 0  0.46875 0.34375 0  0.5 0.34375 0  0.53125 0.34375 0  0.5625 0.34375 0  0.59375 0.34375 0  0.625 0.34375 0  0.65625 0.34375 0  0.6875 0.34375 0  0.71875 0.34375 0  0.75 0.34375 0  0.78125 0.34375 0  0.8125 0.34375 0  0.84375 0.34375 0  0.875 0.34375 0  0.90625 0.34375 0  0.9375 0.34375 0  0.96875 0.34375 0  1 0.34375 0  0 0.375 0  0.03125 0.375 0  0.0625 0.375 0  0.09375 0.375 0  0.125 0.375 0  0.15625 0.375 0  0.1875 0.375 0  0.21875 0.375 0  0.25 0.375 0  0.28125 0.375 0  0.3125 0.375 0  0.34375 0.375 0  0.375 0.375 0  0.40625 0.375 0  0.4375 0.375 0  0.46875 0.375 0  0.5 0.375 0  0.53125 0.375 0  0.5625 0.375 0  0.59375 0.375 0  0.625 0.375 0  0.65625 0.375 0  0.6875 0.375 0  0.71875 0.375 0  0.75 0.375 0  0.78125 0.375 0  0.8125 0.375 0  0.84375 0.375 0  0.875 0.375 0  0.90625 0.375 0  0.9375 0.375 0  0.96875 0.375 0  1 0.375 0  0 0.40625 0  0.03125 0.40625 0  0.0625 0.40625 0  0.09375 0.40625 0  0.125 0.40625 0  0.15625 0.40625 0  0.1875 0.40625 0  0.21875 0.40625 0  0.25 0.40625 0  0.28125 0.40625 0  0.3125 0.40625 0  0.34375 0.40625 0  0.375 0.40625 0  0.40625 0.40625 0  0.4375 0.40625 0  0.46875 0.40625 0  0.5 0.40625 0  0.53125 0.40625 0  0.5625 0.40625 0  0.59375 0.40625 0  0.625 0.40625 0  0.65625 0.40625 0  0.6875 0.40625 0  0.71875 0.40625 0  0.75 0.40625 0  0.78125 0.40625 0  0.8125 0.40625 0  0.84375 0.40625 0  0.875 0.40625 0  0.90625 0.40625 0  0.9375 0.40625 0  0.96875 0.40625 0  1 0.40625 0  0 0.4375 0  0.03125 0.4375 0  0.0625 0.4375 0  0.09375 0.4375 0  0.125 0.4375 0  0.15625 0.4375 0  0.1875 0.4375 0  0.21875 0.4375 0  0.25 0.4375 0  0.28125 0.4375 0  0.3125 0.4375 0  0.34375 0.4375 0  0.375 0.4375 0  0.40625 0.4375 0  0.4375 0.4375 0  0.46875 0.4375 0  0.5 0.4375 0  0.53125 0.4375 0  0.5625 0.4375 0  0.59375 0.4375 0  0.625 0.4375 0  0.65625 0.4375 0  0.6875 0.4375 0  0.71875 0.4375 0  0.75 0.4375 0  0.78125 0.4375 0  0.8125 0.4375 0  0.84375 0.4375 0  0.875 0.4375 0  0.90625 0.4375 0  0.9375 0.4375 0  0.96875 0.4375 0  1 0.4375 0  0 0.46875 0  0.03125 0.46875 0  0.0625 0.46875 0  0.09375 0.46875 0  0.125 0.46875 0  0.15625 0.46875 0  0.1875 0.46875 0  0.21875 0.46875 0  0.25 0.46875 0  0.28125 0.46875 0  0.3125 0.46875 0  0.34375 0.46875 0  0.375 0.46875 0  0.40625 0.46875 0  0.4375 0.46875 0  0.46875 0.46875 0  0.5 0.46875 0  0.53125 0.46875 0  0.5625 0.46875 0  0.59375 0.46875 0  0.625 0.46875 0  0.65625 0.46875 0  0.6875 0.46875 0  0.71875 0.46875 0  0.75 0.46875 0  0.78125 0.46875 0  0.8125 0.46875 0  0.84375 0.46875 0  0.875 0.46875 0  0.90625 0.46875 0  0.9375 0.46875 0  0.96875 0.46875 0  1 0.46875 0  0 0.5 0  0.03125 0.5 0  0.0625 0.5 0  0.09375 0.5 0  0.125 0.5 0  0.15625 0.5 0  0.1875 0.5 0  0.21875 0.5 0  0.25 0.5 0  0.28125 0.5 0  0.3125 0.5 0  0.34375 0.5 0  0.375 0.5 0  0.40625 0.5 0  0.4375 0.5 0  0.46875 0.5 0  0.5 0.5 0  0.53125 0.5 0  0.5625 0.5 0  0.59375 0.5 0  0.625 0.5 0  0.65625 0.5 0  0.6875 0.5 0  0.71875 0.5 0  0.75 0.5 0  0.78125 0.5 0  0.8125 0.5 0  0.84375 0.5 0  0.875 0.5 0  0.90625 0.5 0  0.9375 0.5 0  0.96875 0.5 0  1 0.5 0  0 0.53125 0  0.03125 0.53125 0  0.0625 0.53125 0  0.09375 0.53125 0  0.125 0.53125 0  0.15625 0.53125 0  0.1875 0.53125 0  0.21875 0.53125 0  0.25 0.53125 0  0.28125 0.53125 0  0.3125 0.53125 0  0.34375 0.53125 0  0.375 0.53125 0  0.40625 0.53125 0  0.4375 0.53125 0  0.46875 0.53125 0  0.5 0.53125 0  0.53125 0.53125 0  0.5625 0.53125 0  0.59375 0.53125 0  0.625 0.53125 0  0.65625 0.53125 0  0.6875 0.53125 0  0.71875 0.53125 0  0.75 0.53125 0  0.78125 0.531
[...]
<PointData  Scalars="ControlVisualisation"> 
<DataArray  type="Float64"  Name="ControlVisualisation"  format="ascii">4.3894639450648509e-01  4.3527713308344096e-01  4.2829923530227793e-01  4.1778116664386583e-01  4.0502281876948948e-01  3.8993552444995894e-01  3.7338655501375567e-01  3.5597765360668260e-01  3.3827166388556967e-01  3.2090297464043782e-01  3.0476111298036135e-01  2.9053230521367340e-01  2.7837997609695414e-01  2.6875020382804399e-01  2.6183509887911688e-01  2.5817962980865150e-01  2.5768873854067403e-01  2.6049721895220740e-01  2.6640167447112811e-01  2.7546179018638217e-01  2.8692358778216182e-01  3.0071307483994608e-01  3.1619159649734563e-01  3.3320899331349391e-01  3.5107015877192366e-01  3.6906603585265324e-01  3.8618989721850988e-01  4.0220374188870911e-01  4.1667405507044586e-01  4.2849758517159431e-01  4.3800011431069547e-01  4.4482933119139678e-01  4.4831199759762197e-01  4.3640753776161573e-01  4.3206889540636145e-01  4.2693406492484021e-01  4.1606134122325050e-01  4.0355939555402515e-01  3.8822400652477534e-01  3.7085771152940455e-01  3.5334144215257035e-01  3.3511698144969820e-01  3.1774803631285220e-01  3.0147172461373528e-01  2.8697096633476948e-01  2.7473798817285161e-01  2.6492691598854157e-01  2.5837445319298868e-01  2.5439774144278732e-01  2.5408552998763018e-01  2.5669778190883519e-01  2.6297611983008828e-01  2.7157911740400065e-01  2.8346012467942017e-01  2.9713558256185679e-01  3.1312495258955170e-01  3.3007864054677888e-01  3.4793786491066303e-01  3.6626920507754090e-01  3.8365471626708553e-01  4.0028966421198015e-01  4.1468246780510543e-01  4.2644380444933083e-01  4.3642860722695054e-01  4.4086054749803399e-01  4.4543869945795150e-01  4.3245944369962241e-01  4.3036593602711459e-01  4.2210028671536004e-01  4.1189718600337855e-01  3.9829773730519252e-01  3.8206537951325104e-01  3.6554341921073247e-01  3.4793571202197382e-01  3.2965492933952995e-01  3.1190443514557192e-01  2.9573061442452719e-01  2.8064195254037000e-01  2.6836478638141303e-01  2.5872358491833553e-01  2.5146031649727901e-01  2.4793797339778240e-01  2.4720069649368934e-01  2.5021878522573193e-01  2.5594042598120137e-01  2.6526188296325026e-01  2.7671939222354242e-01  2.9075027998507258e-01  3.0682886898799577e-01  3.2419209024984913e-01  3.4204976918485586e-01  3.6031542619290008e-01  3.7777565406707270e-01  3.9370457668838049e-01  4.0886572294099899e-01  4.2134214280693477e-01  4.3144567966839414e-01  4.3836073017532312e-01  4.4023973645826397e-01  4.2700192122953634e-01  4.2434909881361321e-01  4.1704403892415520e-01  4.0756722587589528e-01  3.9371714306369643e-01  3.7768536019180426e-01  3.5990597519998541e-01  3.4098268422832517e-01  3.2075735721248344e-01  3.0280360643554122e-01  2.8616537657847579e-01  2.7040283423143968e-01  2.5785857397999040e-01  2.4752140879472584e-01  2.4085737603782900e-01  2.3686536809406386e-01  2.3615769939835707e-01  2.3914323086884526e-01  2.4524658056354123e-01  2.5397403823616249e-01  2.6591668622421127e-01  2.8004723593189013e-01  2.9674970062714390e-01  3.1420905256525944e-01  3.3303738349040385e-01  3.5256141782060912e-01  3.7094874062824046e-01  3.8826275922549197e-01  4.0328264132656000e-01  4.1515737094369165e-01  4.2438135588801956e-01  4.3136513304685076e-01  4.3371454968963918e-01  4.2078430175721770e-01  4.1769309523329845e-01  4.0927998086458511e-01  4.0047546210273982e-01  3.8503373358986631e-01  3.6642076282402913e-01  3.4910018327432601e-01  3.2955754443415070e-01  3.0959921363266790e-01  2.9221444610017228e-01  2.7427963807014721e-01  2.5794657299919377e-01  2.4523922590796995e-01  2.3518984467027992e-01  2.2795652470415503e-01  2.2412864257053153e-01  2.2362699903719344e-01  2.2646708645595970e-01  2.3259143390352677e-01  2.4185508360321561e-01  2.5367059160321709e-01  2.6775267868985381e-01  2.8515200524069123e-01  3.0317265198824922e-01  3.2172850853094220e-01  3.4170466169889357e-01  3.6003851942375603e-01  3.7679209149669984e-01  3.9444887084958913e-01  4.0771072697116700e-01  4.1583165536519018e-01  4.2359730687546704e-01  4.2578450018395325e-01  4.1276440246920876e-01  4.0957198155272329e-01  4.0066839481199856e-01  3.9237085713695319e-01  3.7373089399884596e-01  3.5743195337193290e-01  3.3958808102828769e-01  3.1817752882522859e-01  2.9726371397344048e-01  2.7767147406525805e-01  2.5918821751380322e-01  2.4298779401775297e-01  2.3030593754905054e-01  2.1927316848926617e-01  2.1296562245825851e-01  2.0857506607329412e-01  2.0794805840457112e-01  2.1069882387377625e-01  2.1704378427940024e-01  2.2545709835877881e-01  2.3836221942007560e-01  2.5233351777214236e-01  2.6999308914456105e-01  2.8831980186370015e-01  3.0798031271572240e-01  3.2955041433352023e-01  3.4958616444118273e-01  3.6642162125398020e-01  3.8191111168303177e-01  3.9799996029275297e-01  4.0546084336958682e-01  4.1385734609367919e-01  4.1612952097881722e-01  4.0345375698428126e-01  4.0041759606574462e-01  3.9239594381196985e-01  3.8174610515822283e-01  3.6345745897133558e-01  3.4720910648627951e-01  3.2545728611696861e-01  3.0316166059468125e-01  2.8150273023957528e-01  2.6204550489385031e-01  2.4396229555451429e-01  2.2712436630288077e-01  2.1338625866095720e-01  2.0356038841969298e-01  1.9649297274964894e-01  1.9204639264679002e-01  1.9177108058141937e-01  1.9397604043989788e-01  1.9997696799575007e-01  2.0864513420182251e-01  2.2032630886930574e-01  2.3522172720380613e-01  2.5359582335326614e-01  2.7268385745845891e-01  2.9144669039887983e-01  3.1348574057413120e-01  3.3489428708134139e-01  3.5500278144979358e-01  3.7055777470922918e-01  3.8625033400961423e-01  3.9524723902593645e-01  4.0262234340824343e-01  4.0529217373895887e-01  3.9349706534260265e-01  3.9068389158097755e-01  3.8202628188598053e-01  3.7016593774910700e-01  3.5236911314804270e-01  3.3358675030163137e-01  3.1051889169238445e-01  2.8950172448225392e-01  2.6651823273457054e-01  2.4586269792053597e-01  2.2643290385902379e-01  2.0870312199933233e-01  1.9588540170733601e-01  1.8605118389838540e-01  1.7917520785199981e-01  1.7563280726471120e-01  1.7482113772242874e-01  1.7728534586103611e-01  1.8244893535093740e-01  1.9063253319298060e-01  2.0195698769226056e-01  2.1576393388174586e-01  2.3420561364827103e-01  2.5523273699857413e-01  2.7584069341064404e-01  2.9829827191399905e-01  3.1916572797706100e-01  3.4056787345539025e-01  3.5788359716201368e-01  3.7354659705858567e-01  3.8359505336554367e-01  3.9120212362515339e-01  3.9339250314073576e-01  3.8278163681094785e-01  3.7987105378948760e-01  3.7089696897618646e-01  3.5886414561801577e-01  3.3983050504977713e-01  3.1907153341281769e-01  2.9630830819153237e-01  2.7388764316262915e-01  2.4731346523777323e-01  2.2679497156754269e-01  2.0737402704845773e-01  1.9044152275417356e-01  1.7729506918241295e-01  1.6881817372924340e-01  1.6209383534192856e-01  1.5923123274150444e-01  1.5827625521664823e-01  1.6015690441911620e-01  1.6509422688221675e-01  1.7234862168870449e-01  1.8253157783452414e-01  1.9661867055285764e-01  2.1374760393392456e-01  2.3437802119900800e-01  2.5585962306753846e-01  2.8138469967652885e-01  3.0303682887304684e-01  3.2535303216940042e-01  3.4443593674300332e-01  3.6025878080969609e-01  3.7103253987571783e-01  3.7900243968642650e-01  3.8063318481116454e-01  3.7190560274540807e-01  3.6866028475520046e-01  3.6002255397574673e-01  3.4626812766911885e-01  3.2676474057862603e-01  3.0501260042837747e-01  2.8164987134766489e-01  2.5567451123187696e-01  2.2896015441593148e-01  2.0881904184257749e-01  1.8798817203329912e-01  1.6913645054191498e-01  1.5752650151340838e-01  1.4960834251438890e-01  1.4290909052609996e-01  1.4154493448447042e-01  1.4023240390570454e-01  1.4279892249914786e-01  1.4542165307496219e-01  1.5311564962596827e-01  1.6155605127420336e-01  1.7414229013743202e-01  1.9303320572805760e-01  2.1400552208491053e-01  2.3583207517607796e-01  2.6246737646158624e-01  2.8651038630548481e-01  3.0896697615574020e-01  3.3047032152820677e-01  3.4682499539290834e-01  3.5829146103106863e-01  3.6608860182197539e-01  3.6822863298591874e-01  3.6095128661952136e-01  3.5811092863780569e-01  3.4897546433490884e-01  3.3524555747192020e-01  3.1528619249195033e-01  2.9150484027040452e-01  2.6579939971992328e-01  2.3839790910894140e-01  2.1122327663870027e-01  1.8826271544690520e-01  1.6533881174571285e-01  1.4830856940001808e-01  1.3847062948911959e-01  1.3074146500308279e-01  1.2585871828322504e-01  1.2343628428615971e-01  1.2301041979389175e-01  1.2523889541521674e-01  1.2783636929620798e-01  1.3368906304709138e-01  1.4229947917167526e-01  1.5244246202891085e-01  1.6936071827692795e-01  1.9211409132923832e-01  2.1529039272776712e-01  2.4381339946111347e-01  2.7026062287089575e-01  2.9377739853908685e-01  3.1671219422902225e-01  3.3469557464766181e-01  3.4639148299583383e-01  3.5405549041620588e-01  3.5588721153778580e-01  3.5086230025315346e-01  3.4786066988381786e-01  3.3840047616504715e-01  3.2406350846822612e-01  3.0201223850915854e-01  2.7650550432511833e-01  2.5043955037489618e-01  2.2143020895971918e-01  1.9093957935518902e-01  1.6603044546447224e-01  1.4407088915344449e-01  1.2734879704804009e-01  1.1792405834611930e-01  1.1096412168674963e-01  1.0740905335799077e-01  1.0773795200724259e-01  1.0518907763761685e-01  1.0807372552789811e-01  1.0921807079181277e-01  1.1310258938045296e-01  1.1938558643375304e-01  1.3086579798526035e-01  1.4660705659538587e-01  1.6933202464287339e-01  1.9371182967307099e-01  2.2374674928230137e-01  2.5354781527670084e-01  2.7846021208692917e-01  3.0230789229003996e-01  3.2187254065296517e-01  3.3481758912676729e-01  3.4288197361524114e-01  3.4447863515634181e-01  3.4190882591257760e-01  3.3885168724684045e-01  3.2889616396725363e-01  3.1366831543924512e-01  2.9055876098806416e-01  2.6513640220282969e-01  2.3660598002581384e-01  2.0335590078973051e-01  1.7066116473284565e-01  1.4601636193923853e-01  1.2163380938417943e-01  1.0446529089770402e-01  9.7239822141406348e-02  9.1014870539848441e-02  8.7933135117671118e-02  9.1459738550111774e-02  8.9318825091186202e-02  8.8322657949138406e-02  9.0251222366379183e-02  9.1571078257635455e-02  9.5266297946645678e-02  1.0524290058278991e-01  1.2274944943598176e-01  1.4789569913010658e-01  1.7450929931823386e-01  2.0472125652710432e-01  2.3688167413592012e-01  2.6556859703261748e-01  2.8995485109843488e-01  3.1042262604409276e-01  3.2432657823549349e-01  3.3290235626206849e-01  3.3456009573838369e-01  3.3438697169844028e-01  3.3112844943168257e-01  3.2130254522721075e-01  3.0527928197120563e-01  2.8193102434440015e-01  2.5409397822843444e-01  2.2225499292229806e-01  1.8731905720648995e-01  1.5475626582328170e-01  1.2545359240440843e-01  9.6771687098980680e-02  8.1086727295091962e-02  7.2990728856941300e-02  6.4998450213644851e-02  6.1296317562413646e-02  6.6053741526684057e-02  7.1047822209231129e-02  6.9817850844145435e-02  7.0275198781914044e-02  6.8984189617375527e-02  7.1024945325703109e-02  7.9795913949499378e-02  9.7293031705048327e-02  1.2428269261579108e-01  1.5748837013902767e-01  1.9047108073846258e-01  2.2204946477069926e-01  2.5296373300287223e-01  2.8011251715809754e-01  3.0089950733504217e-01  3.1580791836071359e-01  3.2453324091862235e-01  3.2624960453150081e-01  3.2867907250431738e-01  3.2572754869095927e-01  3.1531881761721969e-01  2.9901565135797736e-01  2.7452956991794220e-01  2.4541393958261579e-01  2.1259493591640502e-01  1.7622342869116051e-01  1.3938388588567366e-01  1.0107629507944726e-01  6.8897554271751135e-02  5.1731372906175382e-02  4.2444126344386233e-02  3.5380719736641385e-02  3.1528272089350905e-02  3.8109991417697525e-02  4.2585324123577031e-02  4.7948005216180485e-02  4.7611250889868742e-02  4.5232062842623801e-02  4.4503305806728913e-02  5.2611964858950949e-02  7.5433940377094971e-02  1.0268602850585978e-01  1.3816358601216755e-01  1.7847712964690318e-01  2.1290022775056533e-01  2.4360762212143028e-01  2.7189827028079994e-01  2.9373187340677021e-01  3.0905623573243457e-01  3.1839060861073915e-01  3.1991067691369335e-01  3.2544359075980839e-01  3.2223132705413082e-01  3.1184449944484344e-01  2.9530734011309684e-01  2.7010471559477112e-01  2.4023344374177799e-01  2.0493346659504943e-01  1.6738916468733550e-01  1.2475720031681446e-01  8.1545267077588829e-02  4.4535855652169984e-02  2.2154064032682701e-02  1.4010348839952365e-02  7.9876562271458708e-03  1.3041156777271901e-03  8.2439370117175204e-04  1.7943204919610258e-03  2.1520324055113636e-02  2.4338422800362105e-02  2.1893715498976233e-02  1.6681378400908217e-02  2.5138121795748324e-02  5.4463424285849688e-02  9.1007595106905828e-02  1.2507351426342989e-01  1.6711665745563492e-01  2.0508232869635032e-01  2.3809358053479301e-01  2.6673901808656020e-01  2.8925086722988130e-01  3.0482744360287706e-01  3.1431287189969953e-01  3.1606334564412719e-01  3.2471282592254730e-01  3.2151281728898706e-01  3.1106686074751122e-01  2.9359910849935333e-01  2.6858582639779421e-01  2.3749355819024653e-01  2.0252378053881986e-01  1.6338877327749621e-01  1.1959283967822498e-01  7.4623221697586284e-02  3.5061631140009319e-02  4.5125596968332207e-03  1.5463029920978592e-03  1.0607887377322228e-03  8.5686302766120061e-04  5.2769578364040572e-04  3.3902382805382753e-04  3.4467950002439653e-04  5.3009426374548254e-04  1.2489420749961370e-03  2.5350847964957465e-03  1.0275560179100685e-02  3.9167655351730814e-02  8.3219867515673757e-02  1.2197978787914454e-01  1.6372943877504020e-01  2.0165854877429018e-01  2.3502558307856872e-01  2.6469101389675176e-01  2.8686803906000841e-01  3.0342018746436328e-01  3.1291166505507206e-01  3.1476089854351985e-01  3.2649688817402439e-01  3.2331018738685058e-01  3.1281262660330805e-01  2.9606842502973069e-01  2.7058965302512744e-01  2.4041850576161244e-01  2.0444193057273308e-01  1.6591815794340548e-01  1.2250709800312037e-01  7.8320408046279100e-02  3.8087601894433401e-02  1.1020233709324366e-02  3.8328846175901422e-03  2.6377706006043204e-03  3.6802407348282312e-03  1.7572479432516060e-02  1.6744925331301674e-02  1.8363135493161694e-03  6.3742846854254916e-04  8.3624103459710398e-04  1.4697334808972335e-03  1.1355412681600063e-02  4.1040975639699662e-02  8.3237152801901901e-02  1.2327680941804443e-01  1.6536091707852352e-01  2.0393164452350349e-01  2.3728234320197342e-01  2.6608692102314446e-01  2.8880362752091154e-01  3.0443320610268143e-01  3.1411782790832682e-01  3.1597106847854339e-01  3.3068127313309631e-01  3.2780470485474916e-01  3.1718097876883200e-01  3.0044938002213073e-01  2.7559759963009745e-01  2.4609077147264047e-01  2.1199111490692507e-01  1.7337017645333272e-01  1.3476690891903995e-01  9.6306237114861082e-02  6.1399588541570127e-02  3.9295050266038085e-02  2.9407062206354532e-02  3.1288039369320092e-02  3.9081451155416183e-02  4.6315995499982471e-02  4.6609490515281043e-02  4.0468007281954536e-02  3.6581943113064813e-02  3.3168019254898214e-02  3.0897955265048731e-02  3.7021040701661581e-02  6.4280849710100632e-02  1.0170577700307201e-01  1.3413416419583815e-01  1.7366064369399944e-01  2.1037922720589178e-01  2.4257054422411944e-01  2.7074461966934582e-01  2.9265801520033263e-01  3.0834149563048435e-01  3.1793847525089503e-01  3.1962573981109005e-01  3.3713448395397222e-01  3.3400944630106211e-01  3.2403652013503759e-01  3.0742394631929948e-01  2.8343993999380257e-01  2.5533242118432137e-01  2.2303789412932079e-01  1.8594367270439574e-01  1.4954252832022089e-01  1.1792769731453631e-01  8.9639468712097936e-02  7.2038469373031461e-02  6.3642295736868526e-02  6.4798038505352276e-02  6.9852822489614025e-02  7.1750461095995186e-02  7.3377158846117008e-02  7.0270175872682861e-02  6.8488469027465498e-02  6.5439413051851733e-02  6.5339364254950155e-02  7.1312820401648019e-02  9.5167329441563461e-02  1.1794430616156738e-01  1.4758224925935842e-01  1.8600099234179759e-01  2.2168386110681987e-01  2.5121637694863785e-01  2.7830376495365172e-01  2.9944471121668148e-01  3.1451345710541356e-01  3.2363588684586919e-01  3.2564586761830616e-01  3.4513506798238480e-01  3.4230453348901063e-01  3.3224783231156646e-01  3.1650154996073021e-01  2.9273079823750919e-01  2.6683156647264539e-01  2.3787586998810767e-01  2.0422635418888435e-01  1.6955425247330405e-01  1.4150011201472124e-01  1.1685676707214025e-01  1.0123361993460035e-01  9.2849914534670855e-02  9.1052454941384989e-02  9.1819041921900144e-02  9.1257849094263557e-02  9.2243624981339353e-02  9.2218278278921428e-02  9.3014974414189627e-02  9.1280709071806743e-02  9.3014882977999258e-02  1.0230063871176576e-01  1.1866220682574162e-01  1.3961284878391225e-01  1.7041984967648716e-01  2.0603273629330354e-01  2.3511843740295013e-01  2.6270700472443725e-01  2.8789587637006386e-01  3.0820686010742415e-01  3.2256491769665324e-01  3.3154653434271597e-01  3.3338327955772407e-01  3.5428522901166110e-01  3.5161945598647715e-01  3.4230325737485096e-01  3.2754231872704070e-01  3.0480327873715540e-01  2.7929562434530225e-01  2.5293050749539492e-01  2.2319693673540991e-01  1.9272331197078443e-01  1.6667814392592564e-01  1.4367791494298351e-01  1.2899855641740138e-01  1.1999729639823803e-01  1.1456531483536113e-01  1.1287620917188414e-01  1.1257386597224969e-01  1.1261432465016978e-01  1.1331026514519606e-01  1.1509466918699365e-01  1.1729514486395726e-01  1.2294314645170773e-01  1.3263515647034740e-01  1.4617840996403461e-01  1.6828598925301730e-01  1.9641599530077758e-01  2.2277768618460017e-01  2.5024957879813470e-01  2.7620037779444806e-01  2.9991590562338100e-01  3.1922355549222825e-01  3.3221018876523922e-01  3.4067208384443065e-01  3.4253249445617689e-01  3.6441609868104524e-01  3.6183898501003253e-01  3.5304455649416788e-01  3.3950685526635993e-01  3.1893809892170727e-01  2.9489036653753831e-01  2.6999433437877701e-01  2.4234940943267963e-01  2.1476838199434087e-01  1.9240204388013049e-01  1.6925627559337375e-01  1.5351538620344202e-01  1.4433811926768897e-01  1.3752284318269459e-01  1.3416617314416512e-01  1.3278393932820720e-01  1.3363688210554542e-01  1.3411064583480453e-01  1.3673714714186899e-01  1.4154896406261047e-01  1.4865513855664389e-01  1.5838837312846057e-01  1.7256911086909615e-01  1.9611529924489568e-01  2.1673788625263790e-01  2.4198398640377453e-01  2.6896317693849342e-01  2.9189882343831675e-01  3.1390294432181143e-01  3.3099820463461721e-01  3.4330353073156911e-01  3.5107786858099810e-01  3.5272315816011657e-01  3.7515286207263582e-01  3.7221800387785742e-01  3.6387951659269097e-01  3.5065189786099810e-01  3.3145545953404426e-01  3.0951907854325927e-01  2.8660774984227511e-01  2.6180236898763981e-01  2.3510110751006119e-01  2.1550574555798779e-01  1.9533563820548405e-01  1.7745283900026471e-01  1.6696130358662215e-01  1.5911381701094388e-01  1.5415714590600874e-01  1.5233112133971263e-01  1.5187375420795715e-01  1.5408509518135205e-01  1.5689952870408791e-01  1.6289469162336476e-01  1.7129914716184852e-01  1.8192162027805714e-01  1.9934464347356082e-01  2.1887114408798819e-01  2.3710129535662727e-01  2.6301050064010789e-01  2.8591164588232609e-01  3.0650546785511956e-01  3.2668711224283986e-01  3.4307593265145497e-01  3.5456461167614522e-01  3.6165897185428075e-01  3.6382663032755536e-01  3.8562290247377040e-01  3.8308079441814591e-01  3.7452544230810664e-01  3.6329238012222548e-01  3.4506416665990153e-01  3.2514265775266321e-01  3.0290909474677796e-01  2.8167871836550962e-01  2.5627376513660599e-01  2.3639309484297336e-01  2.1784922191592643e-01  2.0203096147406482e-01  1.9017441715824879e-01  1.8158280117620307e-01  1.7615243459555333e-01  1.7335273282196634e-01  1.7250236321693141e-01  1.7487522544822903e-01  1.7887448135004763e-01  1.8512744718923230e-01  1.9447655728667113e-01  2.0654477957353073e-01  2.2205482526398945e-01  2.3984953076009499e-01  2.5914387393717186e-01  2.8333547273444759e-01  3.0234668280567534e-01  3.2245134854251306e-01  3.4128061427673634e-01  3.5607304048824762e-01  3.6552126187202011e-01  3.7292583028015985e-01  3.7490948944651264e-01  3.9593830297623228e-01  3.9343953101138551e-01  3.8520137172464236e-01  3.743417900