<?xml version="1.0"?>
<VTKFile type="UnstructuredGrid"  version="0.1"  >
<UnstructuredGrid>
<Piece  NumberOfPoints="1089" NumberOfCells="2048">
<Points>
<DataArray  type="Float64"  NumberOfComponents="3"  format="ascii">0 0 0  0.03125 0 0  0.0625 0 0  0.09375 0 0  0.125 0 0  0.15625 0 0  0.1875 0 0  0.21875 0 0  0.25 0 0  0.28125 0 0  0.3125 0 0  0.34375 0 0  0.375 0 0  0.40625 0 0  0.4375 0 0  0.46875 0 0  0.5 0 0  0.53125 0 0  0.5625 0 0  0.59375 0 0  0.625 0 0  0.65625 0 0  0.6875 0 0  0.71875 0 0  0.75 0 0  0.78125 0 0  0.8125 0 0  0.84375 0 0  0.875 0 0  0.90625 0 0  0.9375 0 0  0.96875 0 0  1 0 0  0 0.03125 0  0.03125 0.03125 0  0.0625 0.03125 0  0.09375 0.03125 0  0.125 0.03125 0  0.15625 0.03125 0  0.1875 0.03125 0  0.21875 0.03125 0  0.25 0.03125 0  0.28125 0.03125 0  0.3125 0.03125 0  0.34375 0.03125 0  0.375 0.03125 0  0.40625 0.03125 0  0.4375 0.03125 0  0.46875 0.03125 0  0.5 0.03125 0  0.53125 0.03125 0  0.5625 0.03125 0  0.59375 0.03125 0  0.625 0.03125 0  0.65625 0.03125 0  0.6875 0.03125 0  0.71875 0.03125 0  0.75 0.03125 0  0.78125 0.03125 0  0.8125 0.03125 0  0.84375 0.03125 0  0.875 0.03125 0  0.90625 0.03125 0  0.9375 0.03125 0  0.96875 0.03125 0  1 0.03125 0  0 0.0625 0  0.03125 0.0625 0  0.0625 0.0625 0  0.09375 0.0625 0  0.125 0.0625 0  0.15625 0.0625 0  0.1875 0.0625 0  0.21875 0.0625 0  0.25 0.0625 0  0.28125 0.0625 0  0.3125 0.0625 0  0.34375 0.0625 0  0.375 0.0625 0  0.40625 0.0625 0  0.4375 0.0625 0  0.46875 0.0625 0  0.5 0.0625 0  0.53125 0.0625 0  0.5625 0.0625 0  0.59375 0.0625 0  0.625 0.0625 0  0.65625 0.0625 0  0.6875 0.0625 0  0.71875 0.0625 0  0.75 0.0625 0  0.78125 0.0625 0  0.8125 0.0625 0  0.84375 0.0625 0  0.875 0.0625 0  0.90625 0.0625 0  0.9375 0.0625 0  0.96875 0.0625 0  1 0.0625 0  0 0.09375 0  0.03125 0.09375 0  0.0625 0.09375 0  0.09375 0.09375 0  0.125 0.09375 0  0.15625 0.09375 0  0.1875 0.09375 0  0.21875 0.09375 0  0.25 0.09375 0  0.28125 0.09375 0  0.3125 0.09375 0  0.34375 0.09375 0  0.375 0.09375 0  0.40625 0.09375 0  0.4375 0.09375 0  0.46875 0.09375 0  0.5 0.09375 0  0.53125 0.09375 0  0.5625 0.09375 0  0.59375 0.09375 0  0.625 0.09375 0  0.65625 0.09375 0  0.6875 0.09375 0  0.71875 0.09375 0  0.75 0.09375 0  0.78125 0.09375 0  0.8125 0.09375 0  0.84375 0.09375 0  0.875 0.09375 0  0.90625 0.09375 0  0.9375 0.09375 0  0.96875 0.09375 0  1 0.09375 0  0 0.125 0  0.03125 0.125 0  0.0625 0.125 0  0.09375 0.125 0  0.125 0.125 0  0.15625 0.125 0  0.1875 0.125 0  0.21875 0.125 0  0.25 0.125 0  0.28125 0.125 0  0.3125 0.125 0  0.34375 0.125 0  0.375 0.125 0  0.40625 0.125 0  0.4375 0.125 0  0.46875 0.125 0  0.5 0.125 0  0.53125 0.125 0  0.5625 0.125 0  0.59375 0.125 0  0.625 0.125 0  0.65625 0.125 0  0.6875 0.125 0  0.71875 0.125 0  0.75 0.125 0  0.78125 0.125 0  0.8125 0.125 0  0.84375 0.125 0  0.875 0.125 0  0.90625 0.125 0  0.9375 0.125 0  0.96875 0.125 0  1 0.125 0  0 0.15625 0  0.03125 0.15625 0  0.0625 0.15625 0  0.09375 0.15625 0  0.125 0.15625 0  0.15625 0.15625 0  0.1875 0.15625 0  0.21875 0.15625 0  0.25 0.15625 0  0.28125 0.15625 0  0.3125 0.15625 0  0.34375 0.15625 0  0.375 0.15625 0  0.40625 0.15625 0  0.4375 0.15625 0  0.46875 0.15625 0  0.5 0.15625 0  0.53125 0.15625 0  0.5625 0.15625 0  0.59375 0.15625 0  0.625 0.15625 0  0.65625 0.15625 0  0.6875 0.15625 0  0.71875 0.15625 0  0.75 0.15625 0  0.78125 0.15625 0  0.8125 0.15625 0  0.84375 0.15625 0  0.875 0.15625 0  0.90625 0.15625 0  0.9375 0.15625 0  0.96875 0.15625 0  1 0.15625 0  0 0.1875 0  0.03125 0.1875 0  0.0625 0.1875 0  0.09375 0.1875 0  0.125 0.1875 0  0.15625 0.1875 0  0.1875 0.1875 0  0.21875 0.1875 0  0.25 0.1875 0  0.28125 0.1875 0  0.3125 0.1875 0  0.34375 0.1875 0  0.375 0.1875 0  0.40625 0.1875 0  0.4375 0.1875 0  0.46875 0.1875 0  0.5 0.1875 0  0.53125 0.1875 0  0.5625 0.1875 0  0.59375 0.1875 0  0.625 0.1875 0  0.65625 0.1875 0  0.6875 0.1875 0  0.71875 0.1875 0  0.75 0.1875 0  0.78125 0.1875 0  0.8125 0.1875 0  0.84375 0.1875 0  0.875 0.1875 0  0.90625 0.1875 0  0.9375 0.1875 0  0.96875 0.1875 0  1 0.1875 0  0 0.21875 0  0.03125 0.21875 0  0.0625 0.21875 0  0.09375 0.21875 0  0.125 0.21875 0  0.15625 0.21875 0  0.1875 0.21875 0  0.21875 0.21875 0  0.25 0.21875 0  0.28125 0.21875 0  0.3125 0.21875 0  0.34375 0.21875 0  0.375 0.21875 0  0.40625 0.21875 0  0.4375 0.21875 0  0.46875 0.21875 0  0.5 0.21875 0  0.53125 0.21875 0  0.5625 0.21875 0  0.59375 0.21875 0  0.625 0.21875 0  0.65625 0.21875 0  0.6875 0.21875 0  0.71875 0.21875 0  0.75 0.21875 0  0.78125 0.21875 0  0.8125 0.21875 0  0.84375 0.21875 0  0.875 0.21875 0  0.90625 0.21875 0  0.9375 0.21875 0  0.96875 0.21875 0  1 0.21875 0  0 0.25 0  0.03125 0.25 0  0.0625 0.25 0  0.09375 0.25 0  0.125 0.25 0  0.15625 0.25 0  0.1875 0.25 0  0.21875 0.25 0  0.25 0.25 0  0.28125 0.25 0  0.3125 0.25 0  0.34375 0.25 0  0.375 0.25 0  0.40625 0.25 0  0.4375 0.25 0  0.46875 0.25 0  0.5 0.25 0  0.53125 0.25 0  0.5625 0.25 0  0.59375 0.25 0  0.625 0.25 0  0.65625 0.25 0  0.6875 0.25 0  0.71875 0.25 0  0.75 0.25 0  0.78125 0.25 0  0.8125 0.25 0  0.84375 0.25 0  0.875 0.25 0  0.90625 0.25 0  0.9375 0.25 0  0.96875 0.25 0  1 0.25 0  0 0.28125 0  0.03125 0.28125 0  0.0625 0.28125 0  0.09375 0.28125 0  0.125 0.28125 0  0.15625 0.28125 0  0.1875 0.28125 0  0.21875 0.28125 0  0.25 0.28125 0  0.28125 0.28125 0  0.3125 0.28125 0  0.34375 0.28125 0  0.375 0.28125 0  0.40625 0.28125 0  0.4375 0.28125 0  0.46875 0.28125 0  0.5 0.28125 0  0.53125 0.28125 0  0.5625 0.28125 0  0.59375 0.28125 0  0.625 0.28125 0  0.65625 0.28125 0  0.6875 0.28125 0  0.71875 0.28125 0  0.75 0.28125 0  0.78125 0.28125 0  0.8125 0.28125 0  0.84375 0.28125 0  0.875 0.28125 0  0.90625 0.28125 0  0.9375 0.28125 0  0.96875 0.28125 0  1 0.28125 0  0 0.3125 0  0.03125 0.3125 0  0.0625 0.3125 0  0.09375 0.3125 0  0.125 0.3125 0  0.15625 0.3125 0  0.1875 0.3125 0  0.21875 0.3125 0  0.25 0.3125 0  0.28125 0.3125 0  0.3125 0.3125 0  0.34375 0.3125 0  0.375 0.3125 0  0.40625 0.3125 0  0.4375 0.3125 0  0.46875 0.3125 0  0.5 0.3125 0  0.53125 0.3125 0  0.5625 0.3125 0  0.59375 0.3125 0  0.625 0.3125 0  0.65625 0.3125 0  0.6875 0.3125 0  0.71875 0.3125 0  0.75 0.3125 0  0.78125 0.3125 0  0.8125 0.3125 0  0.84375 0.3125 0  0.875 0.3125 0  0.90625 0.3125 0  0.9375 0.3125 0  0.96875 0.3125 0  1 0.3125 0  0 0.34375 0  0.03125 0.34375 0  0.0625 0.34375 0  0.09375 0.34375 0  0.125 0.34375 0  0.15625 0.34375 0  0.1875 0.34375 0  0.21875 0.34375 0  0.25 0.34375 0  0.28125 0.34375 0  0.3125 0.34375 0  0.34375 0.34375 0  0.375 0.34375 0  0.40625 0.34375 0  0.4375 0.34375 0  0.46875 0.34375 0  0.5 0.34375 0  0.53125 0.34375 0  0.5625 0.34375 0  0.59375 0.34375 0  0.625 0.34375 0  0.65625 0.34375 0  0.6875 0.34375 0  0.71875 0.34375 0  0.75 0.34375 0  0.78125 0.34375 0  0.8125 0.34375 0  0.84375 0.34375 0  0.875 0.34375 0  0.90625 0.34375 0  0.9375 0.34375 0  0.96875 0.34375 0  1 0.34375 0  0 0.375 0  0.03125 0.375 0  0.0625 0.375 0  0.09375 0.375 0  0.125 0.375 0  0.15625 0.375 0  0.1875 0.375 0  0.21875 0.375 0  0.25 0.375 0  0.28125 0.375 0  0.3125 0.375 0  0.34375 0.375 0  0.375 0.375 0  0.40625 0.375 0  0.4375 0.375 0  0.46875 0.375 0  0.5 0.375 0  0.53125 0.375 0  0.5625 0.375 0  0.59375 0.375 0  0.625 0.375 0  0.65625 0.375 0  0.6875 0.375 0  0.71875 0.375 0  0.75 0.375 0  0.78125 0.375 0  0.8125 0.375 0  0.84375 0.375 0  0.875 0.375 0  0.90625 0.375 0  0.9375 0.375 0  0.96875 0.375 0  1 0.375 0  0 0.40625 0  0.03125 0.40625 0  0.0625 0.40625 0  0.09375 0.40625 0  0.125 0.40625 0  0.15625 0.40625 0  0.1875 0.40625 0  0.21875 0.40625 0  0.25 0.40625 0  0.28125 0.40625 0  0.3125 0.40625 0  0.34375 0.40625 0  0.375 0.40625 0  0.40625 0.40625 0  0.4375 0.40625 0  0.46875 0.40625 0  0.5 0.40625 0  0.53125 0.40625 0  0.5625 0.40625 0  0.59375 0.40625 0  0.625 0.40625 0  0.65625 0.40625 0  0.6875 0.40625 0  0.71875 0.40625 0  0.75 0.40625 0  0.78125 0.40625 0  0.8125 0.40625 0  0.84375 0.40625 0  0.875 0.40625 0  0.90625 0.40625 0  0.9375 0.40625 0  0.96875 0.40625 0  1 0.40625 0  0 0.4375 0  0.03125 0.4375 0  0.0625 0.4375 0  0.09375 0.4375 0  0.125 0.4375 0  0.15625 0.4375 0  0.1875 0.4375 0  0.21875 0.4375 0  0.25 0.4375 0  0.28125 0.4375 0  0.3125 0.4375 0  0.34375 0.4375 0  0.375 0.4375 0  0.40625 0.4375 0  0.4375 0.4375 0  0.46875 0.4375 0  0.5 0.4375 0  0.53125 0.4375 0  0.5625 0.4375 0  0.59375 0.4375 0  0.625 0.4375 0  0.65625 0.4375 0  0.6875 0.4375 0  0.71875 0.4375 0  0.75 0.4375 0  0.78125 0.4375 0  0.8125 0.4375 0  0.84375 0.4375 0  0.875 0.4375 0  0.90625 0.4375 0  0.9375 0.4375 0  0.96875 0.4375 0  1 0.4375 0  0 0.46875 0  0.03125 0.46875 0  0.0625 0.46875 0  0.09375 0.46875 0  0.125 0.46875 0  0.15625 0.46875 0  0.1875 0.46875 0  0.21875 0.46875 0  0.25 0.46875 0  0.28125 0.46875 0  0.3125 0.46875 0  0.34375 0.46875 0  0.375 0.46875 0  0.40625 0.46875 0  0.4375 0.46875 0  0.46875 0.46875 0  0.5 0.46875 0  0.53125 0.46875 0  0.5625 0.46875 0  0.59375 0.46875 0  0.625 0.46875 0  0.65625 0.46875 0  0.6875 0.46875 0  0.71875 0.46875 0  0.75 0.46875 0  0.78125 0.46875 0  0.8125 0.46875 0  0.84375 0.46875 0  0.875 0.46875 0  0.90625 0.46875 0  0.9375 0.46875 0  0.96875 0.46875 0  1 0.46875 0  0 0.5 0  0.03125 0.5 0  0.0625 0.5 0  0.09375 0.5 0  0.125 0.5 0  0.15625 0.5 0  0.1875 0.5 0  0.21875 0.5 0  0.25 0.5 0  0.28125 0.5 0  0.3125 0.5 0  0.34375 0.5 0  0.375 0.5 0  0.40625 0.5 0  0.4375 0.5 0  0.46875 0.5 0  0.5 0.5 0  0.53125 0.5 0  0.5625 0.5 0  0.59375 0.5 0  0.625 0.5 0  0.65625 0.5 0  0.6875 0.5 0  0.71875 0.5 0  0.75 0.5 0  0.78125 0.5 0  0.8125 0.5 0  0.84375 0.5 0  0.875 0.5 0  0.90625 0.5 0  0.9375 0.5 0  0.96875 0.5 0  1 0.5 0  0 0.53125 0  0.03125 0.53125 0  0.0625 0.53125 0  0.09375 0.53125 0  0.125 0.53125 0  0.15625 0.53125 0  0.1875 0.53125 0  0.21875 0.53125 0  0.25 0.53125 0  0.28125 0.53125 0  0.3125 0.53125 0  0.34375 0.53125 0  0.375 0.53125 0  0.40625 0.53125 0  0.4375 0.53125 0  0.46875 0.53125 0  0.5 0.53125 0  0.53125 0.53125 0  0.5625 0.53125 0  0.59375 0.53125 0  0.625 0.53125 0  0.65625 0.53125 0  0.6875 0.53125 0  0.71875 0.53125 0  0.75 0.53125 0  0.78125 0.531
[...]
<PointData  Scalars="ControlVisualisation"> 
<DataArray  type="Float64"  Name="ControlVisualisation"  format="ascii">5.2676207407727638e-01  5.2484457337534218e-01  5.1736659728506584e-01  5.0636689982244443e-01  4.9113734487345434e-01  4.7282152806246414e-01  4.5263210615026073e-01  4.3142786621822532e-01  4.1009599930307988e-01  3.8961510426856100e-01  3.7086668446038079e-01  3.5470479766281093e-01  3.4149522982323183e-01  3.3126972069458283e-01  3.2422726537680135e-01  3.2026526121591531e-01  3.1957016578075487e-01  3.2202100378422821e-01  3.2775251618529527e-01  3.3658887196710874e-01  3.4857212446061364e-01  3.6343950001141007e-01  3.8112904196061814e-01  4.0115729163126568e-01  4.2266323293738012e-01  4.4460859130303715e-01  4.6601666875651598e-01  4.8602781560932024e-01  5.0382183126381186e-01  5.1816817496568002e-01  5.2814425201743975e-01  5.3444545777385066e-01  5.3520926341096275e-01  5.2709206167530420e-01  5.2362068296291475e-01  5.1828738192652024e-01  5.0607406270044719e-01  4.9076083164396589e-01  4.7224240315128213e-01  4.5171488569947343e-01  4.3022876573695146e-01  4.0854500601989574e-01  3.8768579552962312e-01  3.6883698816627752e-01  3.5245027870942280e-01  3.3884468564070186e-01  3.2856251016184695e-01  3.2124195699109220e-01  3.1740440153031380e-01  3.1650393249737957e-01  3.1916182634412837e-01  3.2480433145320925e-01  3.3387202523022624e-01  3.4591921966389105e-01  3.6116599608120309e-01  3.7899852323156658e-01  3.9920312699295224e-01  4.2093491583581744e-01  4.4323066778562853e-01  4.6487465959904883e-01  4.8519461139900777e-01  5.0314371651268874e-01  5.1754920696230322e-01  5.2865915871461533e-01  5.3351060992984922e-01  5.3627304913699780e-01  5.2621398219585591e-01  5.2493176019303789e-01  5.1700077360422170e-01  5.0534094190557732e-01  4.8972317681087840e-01  4.7077159407029262e-01  4.4958390120493774e-01  4.2716961052411145e-01  4.0510610671279856e-01  3.8410492909770555e-01  3.6474136979754956e-01  3.4790459446307487e-01  3.3421870757644118e-01  3.2358274709610169e-01  3.1626176926646543e-01  3.1213816270689254e-01  3.1150780397132272e-01  3.1392460337574851e-01  3.1979304344435550e-01  3.2895174540792615e-01  3.4124484470191885e-01  3.5666999455962234e-01  3.7492987542027900e-01  3.9553550233854129e-01  4.1758936163698301e-01  4.4012034036768161e-01  4.6269200334105282e-01  4.8359249517096520e-01  5.0189091761335369e-01  5.1670878827927280e-01  5.2735818356769326e-01  5.3430767119768496e-01  5.3558128870098787e-01  5.2568470833935210e-01  5.2324700277001956e-01  5.1605394960464845e-01  5.0407815575030024e-01  4.8745867782448060e-01  4.6781637323136288e-01  4.4561690920744385e-01  4.2288439740770073e-01  4.0018395296732401e-01  3.7823080295675093e-01  3.5871675099261791e-01  3.4164793065935062e-01  3.2761170443091292e-01  3.1681128917883955e-01  3.0952239258702430e-01  3.0542240345354399e-01  3.0465394712922361e-01  3.0714848725675070e-01  3.1297418227247065e-01  3.2201817583340464e-01  3.3454218699358645e-01  3.5014554333946152e-01  3.6884072677717794e-01  3.8947808511747484e-01  4.1245135579554010e-01  4.3571541813137421e-01  4.5851000966032374e-01  4.8039706691201672e-01  4.9922652027344011e-01  5.1497214576270178e-01  5.2606799612547683e-01  5.3240237780521482e-01  5.3466902378940395e-01  5.2413448023518217e-01  5.2180372135117115e-01  5.1434455093997855e-01  5.0132737126921167e-01  4.8387219475271148e-01  4.6359625405198879e-01  4.4064555874707917e-01  4.1630787917959278e-01  3.9282718555954771e-01  3.7068447164480756e-01  3.5047587034805072e-01  3.3316106527764522e-01  3.1888492916568723e-01  3.0840012114517362e-01  3.0089342974930045e-01  2.9685509095155416e-01  2.9621960333448655e-01  2.9845421566515007e-01  3.0419184844751257e-01  3.1325982195423585e-01  3.2556095903651677e-01  3.4132479142896049e-01  3.6023480626926713e-01  3.8171177362519060e-01  4.0471118468561323e-01  4.2888129087260424e-01  4.5321154805663466e-01  4.7575609337621366e-01  4.9523535884209779e-01  5.1157202151738945e-01  5.2361524280981353e-01  5.3026377391409185e-01  5.3245152128951467e-01  5.2184817062354538e-01  5.1950458220212314e-01  5.1162027145133626e-01  4.9763523905735818e-01  4.7945657904685585e-01  4.5825759744353362e-01  4.3299134275219814e-01  4.0810959145793896e-01  3.8408253068231746e-01  3.6034459940423491e-01  3.4014649055261731e-01  3.2242601259446346e-01  3.0828503859441797e-01  2.9761354342391305e-01  2.9036735254000673e-01  2.8662534596312023e-01  2.8566583065570156e-01  2.8812554444145966e-01  2.9334821050864707e-01  3.0220418107023811e-01  3.1437622919754959e-01  3.3019834068136894e-01  3.4926963195462490e-01  3.7104244250726953e-01  3.9548927377766446e-01  4.2011682072384354e-01  4.4514822365162088e-01  4.6979200467578058e-01  4.9013579055952250e-01  5.0721073392928095e-01  5.1997551389204666e-01  5.2693768334593993e-01  5.2915519014942225e-01  5.1905353733621473e-01  5.1638195257968389e-01  5.0788957935571855e-01  4.9269755930652070e-01  4.7381326570404236e-01  4.5010666739350252e-01  4.2406073996891064e-01  3.9819614418710797e-01  3.7188381375902008e-01  3.4824065492332490e-01  3.2746548166681938e-01  3.0961190025498536e-01  2.9552383526787190e-01  2.8564030711230826e-01  2.7883482800670439e-01  2.7509099809024878e-01  2.7457361812141945e-01  2.7636401847738751e-01  2.8148150639347247e-01  2.8973024285708343e-01  3.0112791003836925e-01  3.1679157789820206e-01  3.3596592936820463e-01  3.5813384882049665e-01  3.8296299374387632e-01  4.0947411344149565e-01  4.3555902207147745e-01  4.6096187876343120e-01  4.8350142699623583e-01  5.0127802853241443e-01  5.1520883456620459e-01  5.2262761640186883e-01  5.2510858265001548e-01  5.1560736238007721e-01  5.1262282598833186e-01  5.0283957396444945e-01  4.8717827039482475e-01  4.6593540944763934e-01  4.4098818951415364e-01  4.1363336401046735e-01  3.8497123317650328e-01  3.5836865795667744e-01  3.3338907937368600e-01  3.1185495153173215e-01  2.9395246409553444e-01  2.8080639408076413e-01  2.7134259792504328e-01  2.6479168151439775e-01  2.6198915035565851e-01  2.6095813778605687e-01  2.6297961022095784e-01  2.6693651659458434e-01  2.7477573681624251e-01  2.8566002340026087e-01  3.0050072492586855e-01  3.1981470140872303e-01  3.4251416284818054e-01  3.6863592727188732e-01  3.9571237477575771e-01  4.2415630662683290e-01  4.5104869264682340e-01  4.7460358117448681e-01  4.9446945169962203e-01  5.0888073820138990e-01  5.1753078668563013e-01  5.2027759936353346e-01  5.1137390817902251e-01  5.0793044307454671e-01  4.9768028934538072e-01  4.8054076162142467e-01  4.5735589574719543e-01  4.3130189461339874e-01  4.0065233722216109e-01  3.7088019913766845e-01  3.4193308634381619e-01  3.1516458976465594e-01  2.9331813091057402e-01  2.7596136083674172e-01  2.6317156528638391e-01  2.5451027770765161e-01  2.4948646867779486e-01  2.4656994270674121e-01  2.4594823215216058e-01  2.4733219718393740e-01  2.5106058814506688e-01  2.5724923396392768e-01  2.6725717830446410e-01  2.8163359503864943e-01  3.0076004623889507e-01  3.2373404158738039e-01  3.5152573152841360e-01  3.8082532700042415e-01  4.1035322029523308e-01  4.4008461103101904e-01  4.6498508102226538e-01  4.8644374972756677e-01  5.0218689836940889e-01  5.1125564648568278e-01  5.1455522761900885e-01  5.0651096961222675e-01  5.0263157801113323e-01  4.9176895673782861e-01  4.7255417509582853e-01  4.4834906097219773e-01  4.1927836178909650e-01  3.8648088563942024e-01  3.5388824699660015e-01  3.2213140981793786e-01  2.9407428659854262e-01  2.7191105304194391e-01  2.5427727915053067e-01  2.4302674042020678e-01  2.3588190035661580e-01  2.3143474826686625e-01  2.2959267935297059e-01  2.2916503580225739e-01  2.2997121025799777e-01  2.3251799019012132e-01  2.3792393353341323e-01  2.4637262122622336e-01  2.5932136315196597e-01  2.7881289677627369e-01  3.0241299764081081e-01  3.3121789897917819e-01  3.6325587482342953e-01  3.9535985361474701e-01  4.2699125252676162e-01  4.5443592080170164e-01  4.7715744341038724e-01  4.9462146916341138e-01  5.0426036805638697e-01  5.0801050283883642e-01  5.0129965166723356e-01  4.9722425089320083e-01  4.8519306510896887e-01  4.6484021125886449e-01  4.3840241314919121e-01  4.0670366655833373e-01  3.7094727812165240e-01  3.3476744971028366e-01  2.9989778999214317e-01  2.7002603689383758e-01  2.4623405791854192e-01  2.2963008321000258e-01  2.1958942056581923e-01  2.1374648814298500e-01  2.1160503699241540e-01  2.1046153864058409e-01  2.1020611739374903e-01  2.1059333383485657e-01  2.1201819261998675e-01  2.1537290047206278e-01  2.2239079451966562e-01  2.3422029966382049e-01  2.5282716941387051e-01  2.7829523734576700e-01  3.0898137414959342e-01  3.4360270351913785e-01  3.7899631510434872e-01  4.1333423852004109e-01  4.4306264587071759e-01  4.6761603987476608e-01  4.8637816282718976e-01  4.9698736628801926e-01  5.0096193428379521e-01  4.9623647849516850e-01  4.9183443912917935e-01  4.7884951702328060e-01  4.5707976020528762e-01  4.2822039902806985e-01  3.9389522910950309e-01  3.5426245277527463e-01  3.1369336107188328e-01  2.7541204774677797e-01  2.4200289449563245e-01  2.1674761057890499e-01  2.0054274982265310e-01  1.9214156104063651e-01  1.8939753982578933e-01  1.8937835740268441e-01  1.8940219479186943e-01  1.8955285541203154e-01  1.8958868411434571e-01  1.8981081214737414e-01  1.9105287579430516e-01  1.9553888768363215e-01  2.0580990341101393e-01  2.2402041823036861e-01  2.5068990333060592e-01  2.8460980158724641e-01  3.2252082573190294e-01  3.6156609969432801e-01  3.9930643369082458e-01  4.3142048917278925e-01  4.5811106817399555e-01  4.7801052732340243e-01  4.8961460496696951e-01  4.9390487821824458e-01  4.9168166039127148e-01  4.8678988083978786e-01  4.7299750657727341e-01  4.4956370188435330e-01  4.1858635692230378e-01  3.8107865660453621e-01  3.3705054127339762e-01  2.9237690912781145e-01  2.4872927060721942e-01  2.1024231335426696e-01  1.8237190173137646e-01  1.6591923058310840e-01  1.6016393381505037e-01  1.6046016992686760e-01  1.6312680750399797e-01  1.6525395746608590e-01  1.6725758367218116e-01  1.6608952118141973e-01  1.6445379494946508e-01  1.6343663580440920e-01  1.6542918437563603e-01  1.7325257424251686e-01  1.9202015233021283e-01  2.2077615570932005e-01  2.5874384471640066e-01  3.0092254235219923e-01  3.4386520107482654e-01  3.8527965801256736e-01  4.2017278275733161e-01  4.4871363369137851e-01  4.7015017033694562e-01  4.8236764817536565e-01  4.8719041361543608e-01  4.8778563046271001e-01  4.8256221344210415e-01  4.6805679370261261e-01  4.4318103879613796e-01  4.1011571393317925e-01  3.6954838183866134e-01  3.2153610211689670e-01  2.7175661625931019e-01  2.2092053766753006e-01  1.7590954590289723e-01  1.4247114322503560e-01  1.2426063897312659e-01  1.2105900189742441e-01  1.2593764626008044e-01  1.3307007569165558e-01  1.3814218746628990e-01  1.4024408298135912e-01  1.3932459067504308e-01  1.3651793021073574e-01  1.3187450919866733e-01  1.3061043446625295e-01  1.3681671122762015e-01  1.5613076761078293e-01  1.8908138835161759e-01  2.3236127183267188e-01  2.8046599582842324e-01  3.2736083254145149e-01  3.7255605122366520e-01  4.1002771078171824e-01  4.4039516335269829e-01  4.6300618184782633e-01  4.7591114232039899e-01  4.8099564786010879e-01  4.8484490586295764e-01  4.7939067391425083e-01  4.6424856425399519e-01  4.3816022050669123e-01  4.0370364243651530e-01  3.5995852473160050e-01  3.0893102967854669e-01  2.5323372594825411e-01  1.9584339060010797e-01  1.4157143568110192e-01  9.7482236341937117e-02  7.3643384053026256e-02  7.2106627965974016e-02  8.4942262998965873e-02  9.6521060530698505e-02  1.0432421601125089e-01  1.0841784306916605e-01  1.0637458950372837e-01  1.0274755984010123e-01  9.6457311216587113e-02  9.1078019640410027e-02  9.4966662723548284e-02  1.1748397911123246e-01  1.5730722695862154e-01  2.0760853986517358e-01  2.6160336103135229e-01  3.1389152297743300e-01  3.6145065526973724e-01  4.0191246957919591e-01  4.3341278811385686e-01  4.5708563961479781e-01  4.7041933212668702e-01  4.7575919699241925e-01  4.8312144533276996e-01  4.7757672253892530e-01  4.6190447040148380e-01  4.3547024702360659e-01  3.9911442346940651e-01  3.5446775207659481e-01  3.0020482216332994e-01  2.4116926956820742e-01  1.7762545053824677e-01  1.1438294168941783e-01  5.6609594744605370e-02  1.6032169003921848e-02  7.7143461532925180e-03  3.5547606579760950e-02  5.3481159974009838e-02  6.1638294174369924e-02  6.4959287984766217e-02  6.3579775983544390e-02  6.0644695707985904e-02  5.3362219862944205e-02  4.6675381868520507e-02  4.9628525468348186e-02  7.8596120672148481e-02  1.2909754817350641e-01  1.8756867843178160e-01  2.4779951107286513e-01  3.0364234086241576e-01  3.5448709810707102e-01  3.9557838910500209e-01  4.2881308661387013e-01  4.5266085422135854e-01  4.6645477613499753e-01  4.7183570747731374e-01  4.8286786233247075e-01  4.7721558597341779e-01  4.6160912154000472e-01  4.3448654739434378e-01  3.9840934511006432e-01  3.5253536780286066e-01  2.9759599320002866e-01  2.3718375448157455e-01  1.7229022024705165e-01  1.0696428405562453e-01  4.7311035002795987e-02  9.6962988741225199e-03  2.7756698475261722e-03  1.4353778489279928e-03  1.0292917409447208e-03  1.0764955326564457e-03  1.1993476848501357e-03  1.3606337830427797e-03  1.6904596661237114e-03  2.4572625629327746e-03  4.4514793119700422e-03  1.1398814955038252e-02  5.0140407008198100e-02  1.1138023864819831e-01  1.7747978022936289e-01  2.4103766889821465e-01  2.9918889434735801e-01  3.5087208054042424e-01  3.9325756654942046e-01  4.2606769562076990e-01  4.5050013925296056e-01  4.6411657106180115e-01  4.6961184956836427e-01  4.8414989061825892e-01  4.7857919094165485e-01  4.6284452083629390e-01  4.3634128587124144e-01  3.9990595207331797e-01  3.5522010861595044e-01  3.0102538830213793e-01  2.4237484324159966e-01  1.7986982513260033e-01  1.1938724350014565e-01  6.7286166190881985e-02  3.3507053112102156e-02  2.1035511786437335e-02  1.0978319031430615e-02  2.4075772621524640e-03  1.5963211035146065e-03  1.3708539315705072e-03  1.3014290222919565e-03  1.4143018783554179e-03  1.7553649167827143e-03  2.7378696158438473e-03  7.7710122269750064e-03  5.1501998431687387e-02  1.1462674415354966e-01  1.8051435016583597e-01  2.4385985447000119e-01  3.0087355335188765e-01  3.5216406797024341e-01  3.9330608294027058e-01  4.2643318102504363e-01  4.5010643631286656e-01  4.6382756763222710e-01  4.6921991850103845e-01  4.8685256879152100e-01  4.8134621503773095e-01  4.6609455932705329e-01  4.3985927174774403e-01  4.0527063646421613e-01  3.6138799485962159e-01  3.1033509234643408e-01  2.5489471553340892e-01  1.9830115762702460e-01  1.4541451026459490e-01  1.0237650862385227e-01  7.6755168818463115e-02  6.7546657962747142e-02  6.6163665239598310e-02  6.7228007664489928e-02  6.9954496081628140e-02  7.1745874165221837e-02  7.1419522702470775e-02  6.9841165084457035e-02  6.6712750100785645e-02  6.3231244127782721e-02  6.6893802024569141e-02  9.3544890230965752e-02  1.4204318679103400e-01  1.9810960114548029e-01  2.5515456110255957e-01  3.0922224638785045e-01  3.5728278845511441e-01  3.9753916195574818e-01  4.2871685060947223e-01  4.5210142065991799e-01  4.6527229750361926e-01  4.7061958343386739e-01  4.9066686248703512e-01  4.8537331700544578e-01  4.7071873498310240e-01  4.4564396425041525e-01  4.1237451610869158e-01  3.7158843079414466e-01  3.2334278864351967e-01  2.7338623162146569e-01  2.2244440713509944e-01  1.7701367486875472e-01  1.4207882480182865e-01  1.2040329022480151e-01  1.1256202637468816e-01  1.1195326097117045e-01  1.1508722291196755e-01  1.1857013546078768e-01  1.2038863703092041e-01  1.2104372534783404e-01  1.1953690066943422e-01  1.1700753496713913e-01  1.1626896869508244e-01  1.2150544363065977e-01  1.4247479724319040e-01  1.7779563039658527e-01  2.2359626219983902e-01  2.7413028496644992e-01  3.2188665238920605e-01  3.6673744035279199e-01  4.0386397258174239e-01  4.3367281369682142e-01  4.5578885684088655e-01  4.6837682971203182e-01  4.7353086069447375e-01  4.9527106095762968e-01  4.9030714736047565e-01  4.7635729065810595e-01  4.5270322253426920e-01  4.2149420859523073e-01  3.8371528325336118e-01  3.3933083664422653e-01  2.9408391511181148e-01  2.4971422715657132e-01  2.0993670184522070e-01  1.8010648804858351e-01  1.6105828260101504e-01  1.5276560980307577e-01  1.5128874644163862e-01  1.5298248671778747e-01  1.5572649271086261e-01  1.5802355011648209e-01  1.5844303348086874e-01  1.5810762969243472e-01  1.5787437404167839e-01  1.5982346395622610e-01  1.6732014411429741e-01  1.8544964583195889e-01  2.1406467855582972e-01  2.5301982467087836e-01  2.9537155135094501e-01  3.3764878873866033e-01  3.7857188702234296e-01  4.1253234721442278e-01  4.4015262092635371e-01  4.6087458742081988e-01  4.7278849208234613e-01  4.7763449555791554e-01  5.0032452597913901e-01  4.9589355415604519e-01  4.8277300220107938e-01  4.6082867864672744e-01  4.3173763705853740e-01  3.9716290847195745e-01  3.5714855745846480e-01  3.1601690170970359e-01  2.7673253013796173e-01  2.4212125802872619e-01  2.1514315218135346e-01  1.9747814507196451e-01  1.8820111246058785e-01  1.8511404423671124e-01  1.8520906277382387e-01  1.8698012965800295e-01  1.8809210633507742e-01  1.8961567027564666e-01  1.9036697370809427e-01  1.9215968778138984e-01  1.9626667019807842e-01  2.0575223057892850e-01  2.2250442597344158e-01  2.4833002106772389e-01  2.8099644129712109e-01  3.1753099230979964e-01  3.5558670307017398e-01  3.9184280571783947e-01  4.2247318436308812e-01  4.4807938021977456e-01  4.6704622211576347e-01  4.7818900937533632e-01  4.8257260244696931e-01  5.0568718657890543e-01  5.0161829864005936e-01  4.8955532519567940e-01  4.6907299610354303e-01  4.4252953149384794e-01  4.1063165828499237e-01  3.7460638003477648e-01  3.3800583032219739e-01  3.0246251891098369e-01  2.7161400461258811e-01  2.4699941932239819e-01  2.2941122670406536e-01  2.1934370902350611e-01  2.1413729700537421e-01  2.1289471358569503e-01  2.1289371989685335e-01  2.1422203111374699e-01  2.1532385721420230e-01  2.1766381936901782e-01  2.2084482059594018e-01  2.2738693511692978e-01  2.3781638827710450e-01  2.5495074601681195e-01  2.7829604276034159e-01  3.0687396574590953e-01  3.3974741630834804e-01  3.7300786154096383e-01  4.0518295916061320e-01  4.3331717120728663e-01  4.5625640813367901e-01  4.7384172243940609e-01  4.8404689764096925e-01  4.8813739733608186e-01  5.1099716247999227e-01  5.0717620677419084e-01  4.9638482547084573e-01  4.7720775227162215e-01  4.5302887743534404e-01  4.2400029134785222e-01  3.9106690002667938e-01  3.5835487216136785e-01  3.2633223615966706e-01  2.9788046912496668e-01  2.7537714098684329e-01  2.5774976144778233e-01  2.4670362224599729e-01  2.4056417783752129e-01  2.3694974624822684e-01  2.3656248121366499e-01  2.3692240548972621e-01  2.3875973793363370e-01  2.4116992074163759e-01  2.4665038578579809e-01  2.5402883314372998e-01  2.6563519042880424e-01  2.8299500514641157e-01  3.0413965578589025e-01  3.3063772194260210e-01  3.5990884373516147e-01  3.8924776789417159e-01  4.1858857957906243e-01  4.4375793337543679e-01  4.6450100285848089e-01  4.8096759108600423e-01  4.9003508712390653e-01  4.9389713242078526e-01  5.1571651041404176e-01  5.1242758237996033e-01  5.0241258699124680e-01  4.8547503618591020e-01  4.6251579630486855e-01  4.3674633590370837e-01  4.0632845522747696e-01  3.7666339429836898e-01  3.4792614179180753e-01  3.2128746665003699e-01  2.9976745767713736e-01  2.8275612553410950e-01  2.7061707328633094e-01  2.6306834896449954e-01  2.5918093193114289e-01  2.5712196757660344e-01  2.5754997786881256e-01  2.5905012397607080e-01  2.6304307860180365e-01  2.6847914993381805e-01  2.7722480372875935e-01  2.8988249642465497e-01  3.0654410025468121e-01  3.2695291990812275e-01  3.5174446851660429e-01  3.7771761865430820e-01  4.0439112240835040e-01  4.3122955454952544e-01  4.5337948364794667e-01  4.7315545137609777e-01  4.8748377254247310e-01  4.9588676014147076e-01  4.9933711377681611e-01  5.1954582752197420e-01  5.1685679746496915e-01  5.0746432525769647e-01  4.922934248