<?xml version="1.0"?>
<VTKFile type="UnstructuredGrid"  version="0.1"  >
<UnstructuredGrid>
<Piece  NumberOfPoints="1089" NumberOfCells="2048">
<Points>
<DataArray  type="Float64"  NumberOfComponents="3"  format="ascii">0 0 0  0.03125 0 0  0.0625 0 0  0.09375 0 0  0.125 0 0  0.15625 0 0  0.1875 0 0  0.21875 0 0  0.25 0 0  0.28125 0 0  0.3125 0 0  0.34375 0 0  0.375 0 0  0.40625 0 0  0.4375 0 0  0.46875 0 0  0.5 0 0  0.53125 0 0  0.5625 0 0  0.59375 0 0  0.625 0 0  0.65625 0 0  0.6875 0 0  0.71875 0 0  0.75 0 0  0.78125 0 0  0.8125 0 0  0.84375 0 0  0.875 0 0  0.90625 0 0  0.9375 0 0  0.96875 0 0  1 0 0  0 0.03125 0  0.03125 0.03125 0  0.0625 0.03125 0  0.09375 0.03125 0  0.125 0.03125 0  0.15625 0.03125 0  0.1875 0.03125 0  0.21875 0.03125 0  0.25 0.03125 0  0.28125 0.03125 0  0.3125 0.03125 0  0.34375 0.03125 0  0.375 0.03125 0  0.40625 0.03125 0  0.4375 0.03125 0  0.46875 0.03125 0  0.5 0.03125 0  0.53125 0.03125 0  0.5625 0.03125 0  0.59375 0.03125 0  0.625 0.03125 0  0.65625 0.03125 0  0.6875 0.03125 0  0.71875 0.03125 0  0.75 0.03125 0  0.78125 0.03125 0  0.8125 0.03125 0  0.84375 0.03125 0  0.875 0.03125 0  0.90625 0.03125 0  0.9375 0.03125 0  0.96875 0.03125 0  1 0.03125 0  0 0.0625 0  0.03125 0.0625 0  0.0625 0.0625 0  0.09375 0.0625 0  0.125 0.0625 0  0.15625 0.0625 0  0.1875 0.0625 0  0.21875 0.0625 0  0.25 0.0625 0  0.28125 0.0625 0  0.3125 0.0625 0  0.34375 0.0625 0  0.375 0.0625 0  0.40625 0.0625 0  0.4375 0.0625 0  0.46875 0.0625 0  0.5 0.0625 0  0.53125 0.0625 0  0.5625 0.0625 0  0.59375 0.0625 0  0.625 0.0625 0  0.65625 0.0625 0  0.6875 0.0625 0  0.71875 0.0625 0  0.75 0.0625 0  0.78125 0.0625 0  0.8125 0.0625 0  0.84375 0.0625 0  0.875 0.0625 0  0.90625 0.0625 0  0.9375 0.0625 0  0.96875 0.0625 0  1 0.0625 0  0 0.09375 0  0.03125 0.09375 0  0.0625 0.09375 0  0.09375 0.09375 0  0.125 0.09375 0  0.15625 0.09375 0  0.1875 0.09375 0  0.21875 0.09375 0  0.25 0.09375 0  0.28125 0.09375 0  0.3125 0.09375 0  0.34375 0.09375 0  0.375 0.09375 0  0.40625 0.09375 0  0.4375 0.09375 0  0.46875 0.09375 0  0.5 0.09375 0  0.53125 0.09375 0  0.5625 0.09375 0  0.59375 0.09375 0  0.625 0.09375 0  0.65625 0.09375 0  0.6875 0.09375 0  0.71875 0.09375 0  0.75 0.09375 0  0.78125 0.09375 0  0.8125 0.09375 0  0.84375 0.09375 0  0.875 0.09375 0  0.90625 0.09375 0  0.9375 0.09375 0  0.96875 0.09375 0  1 0.09375 0  0 0.125 0  0.03125 0.125 0  0.0625 0.125 0  0.09375 0.125 0  0.125 0.125 0  0.15625 0.125 0  0.1875 0.125 0  0.21875 0.125 0  0.25 0.125 0  0.28125 0.125 0  0.3125 0.125 0  0.34375 0.125 0  0.375 0.125 0  0.40625 0.125 0  0.4375 0.125 0  0.46875 0.125 0  0.5 0.125 0  0.53125 0.125 0  0.5625 0.125 0  0.59375 0.125 0  0.625 0.125 0  0.65625 0.125 0  0.6875 0.125 0  0.71875 0.125 0  0.75 0.125 0  0.78125 0.125 0  0.8125 0.125 0  0.84375 0.125 0  0.875 0.125 0  0.90625 0.125 0  0.9375 0.125 0  0.96875 0.125 0  1 0.125 0  0 0.15625 0  0.03125 0.15625 0  0.0625 0.15625 0  0.09375 0.15625 0  0.125 0.15625 0  0.15625 0.15625 0  0.1875 0.15625 0  0.21875 0.15625 0  0.25 0.15625 0  0.28125 0.15625 0  0.3125 0.15625 0  0.34375 0.15625 0  0.375 0.15625 0  0.40625 0.15625 0  0.4375 0.15625 0  0.46875 0.15625 0  0.5 0.15625 0  0.53125 0.15625 0  0.5625 0.15625 0  0.59375 0.15625 0  0.625 0.15625 0  0.65625 0.15625 0  0.6875 0.15625 0  0.71875 0.15625 0  0.75 0.15625 0  0.78125 0.15625 0  0.8125 0.15625 0  0.84375 0.15625 0  0.875 0.15625 0  0.90625 0.15625 0  0.9375 0.15625 0  0.96875 0.15625 0  1 0.15625 0  0 0.1875 0  0.03125 0.1875 0  0.0625 0.1875 0  0.09375 0.1875 0  0.125 0.1875 0  0.15625 0.1875 0  0.1875 0.1875 0  0.21875 0.1875 0  0.25 0.1875 0  0.28125 0.1875 0  0.3125 0.1875 0  0.34375 0.1875 0  0.375 0.1875 0  0.40625 0.1875 0  0.4375 0.1875 0  0.46875 0.1875 0  0.5 0.1875 0  0.53125 0.1875 0  0.5625 0.1875 0  0.59375 0.1875 0  0.625 0.1875 0  0.65625 0.1875 0  0.6875 0.1875 0  0.71875 0.1875 0  0.75 0.1875 0  0.78125 0.1875 0  0.8125 0.1875 0  0.84375 0.1875 0  0.875 0.1875 0  0.90625 0.1875 0  0.9375 0.1875 0  0.96875 0.1875 0  1 0.1875 0  0 0.21875 0  0.03125 0.21875 0  0.0625 0.21875 0  0.09375 0.21875 0  0.125 0.21875 0  0.15625 0.21875 0  0.1875 0.21875 0  0.21875 0.21875 0  0.25 0.21875 0  0.28125 0.21875 0  0.3125 0.21875 0  0.34375 0.21875 0  0.375 0.21875 0  0.40625 0.21875 0  0.4375 0.21875 0  0.46875 0.21875 0  0.5 0.21875 0  0.53125 0.21875 0  0.5625 0.21875 0  0.59375 0.21875 0  0.625 0.21875 0  0.65625 0.21875 0  0.6875 0.21875 0  0.71875 0.21875 0  0.75 0.21875 0  0.78125 0.21875 0  0.8125 0.21875 0  0.84375 0.21875 0  0.875 0.21875 0  0.90625 0.21875 0  0.9375 0.21875 0  0.96875 0.21875 0  1 0.21875 0  0 0.25 0  0.03125 0.25 0  0.0625 0.25 0  0.09375 0.25 0  0.125 0.25 0  0.15625 0.25 0  0.1875 0.25 0  0.21875 0.25 0  0.25 0.25 0  0.28125 0.25 0  0.3125 0.25 0  0.34375 0.25 0  0.375 0.25 0  0.40625 0.25 0  0.4375 0.25 0  0.46875 0.25 0  0.5 0.25 0  0.53125 0.25 0  0.5625 0.25 0  0.59375 0.25 0  0.625 0.25 0  0.65625 0.25 0  0.6875 0.25 0  0.71875 0.25 0  0.75 0.25 0  0.78125 0.25 0  0.8125 0.25 0  0.84375 0.25 0  0.875 0.25 0  0.90625 0.25 0  0.9375 0.25 0  0.96875 0.25 0  1 0.25 0  0 0.28125 0  0.03125 0.28125 0  0.0625 0.28125 0  0.09375 0.28125 0  0.125 0.28125 0  0.15625 0.28125 0  0.1875 0.28125 0  0.21875 0.28125 0  0.25 0.28125 0  0.28125 0.28125 0  0.3125 0.28125 0  0.34375 0.28125 0  0.375 0.28125 0  0.40625 0.28125 0  0.4375 0.28125 0  0.46875 0.28125 0  0.5 0.28125 0  0.53125 0.28125 0  0.5625 0.28125 0  0.59375 0.28125 0  0.625 0.28125 0  0.65625 0.28125 0  0.6875 0.28125 0  0.71875 0.28125 0  0.75 0.28125 0  0.78125 0.28125 0  0.8125 0.28125 0  0.84375 0.28125 0  0.875 0.28125 0  0.90625 0.28125 0  0.9375 0.28125 0  0.96875 0.28125 0  1 0.28125 0  0 0.3125 0  0.03125 0.3125 0  0.0625 0.3125 0  0.09375 0.3125 0  0.125 0.3125 0  0.15625 0.3125 0  0.1875 0.3125 0  0.21875 0.3125 0  0.25 0.3125 0  0.28125 0.3125 0  0.3125 0.3125 0  0.34375 0.3125 0  0.375 0.3125 0  0.40625 0.3125 0  0.4375 0.3125 0  0.46875 0.3125 0  0.5 0.3125 0  0.53125 0.3125 0  0.5625 0.3125 0  0.59375 0.3125 0  0.625 0.3125 0  0.65625 0.3125 0  0.6875 0.3125 0  0.71875 0.3125 0  0.75 0.3125 0  0.78125 0.3125 0  0.8125 0.3125 0  0.84375 0.3125 0  0.875 0.3125 0  0.90625 0.3125 0  0.9375 0.3125 0  0.96875 0.3125 0  1 0.3125 0  0 0.34375 0  0.03125 0.34375 0  0.0625 0.34375 0  0.09375 0.34375 0  0.125 0.34375 0  0.15625 0.34375 0  0.1875 0.34375 0  0.21875 0.34375 0  0.25 0.34375 0  0.28125 0.34375 0  0.3125 0.34375 0  0.34375 0.34375 0  0.375 0.34375 0  0.40625 0.34375 0  0.4375 0.34375 0  0.46875 0.34375 0  0.5 0.34375 0  0.53125 0.34375 0  0.5625 0.34375 0  0.59375 0.34375 0  0.625 0.34375 0  0.65625 0.34375 0  0.6875 0.34375 0  0.71875 0.34375 0  0.75 0.34375 0  0.78125 0.34375 0  0.8125 0.34375 0  0.84375 0.34375 0  0.875 0.34375 0  0.90625 0.34375 0  0.9375 0.34375 0  0.96875 0.34375 0  1 0.34375 0  0 0.375 0  0.03125 0.375 0  0.0625 0.375 0  0.09375 0.375 0  0.125 0.375 0  0.15625 0.375 0  0.1875 0.375 0  0.21875 0.375 0  0.25 0.375 0  0.28125 0.375 0  0.3125 0.375 0  0.34375 0.375 0  0.375 0.375 0  0.40625 0.375 0  0.4375 0.375 0  0.46875 0.375 0  0.5 0.375 0  0.53125 0.375 0  0.5625 0.375 0  0.59375 0.375 0  0.625 0.375 0  0.65625 0.375 0  0.6875 0.375 0  0.71875 0.375 0  0.75 0.375 0  0.78125 0.375 0  0.8125 0.375 0  0.84375 0.375 0  0.875 0.375 0  0.90625 0.375 0  0.9375 0.375 0  0.96875 0.375 0  1 0.375 0  0 0.40625 0  0.03125 0.40625 0  0.0625 0.40625 0  0.09375 0.40625 0  0.125 0.40625 0  0.15625 0.40625 0  0.1875 0.40625 0  0.21875 0.40625 0  0.25 0.40625 0  0.28125 0.40625 0  0.3125 0.40625 0  0.34375 0.40625 0  0.375 0.40625 0  0.40625 0.40625 0  0.4375 0.40625 0  0.46875 0.40625 0  0.5 0.40625 0  0.53125 0.40625 0  0.5625 0.40625 0  0.59375 0.40625 0  0.625 0.40625 0  0.65625 0.40625 0  0.6875 0.40625 0  0.71875 0.40625 0  0.75 0.40625 0  0.78125 0.40625 0  0.8125 0.40625 0  0.84375 0.40625 0  0.875 0.40625 0  0.90625 0.40625 0  0.9375 0.40625 0  0.96875 0.40625 0  1 0.40625 0  0 0.4375 0  0.03125 0.4375 0  0.0625 0.4375 0  0.09375 0.4375 0  0.125 0.4375 0  0.15625 0.4375 0  0.1875 0.4375 0  0.21875 0.4375 0  0.25 0.4375 0  0.28125 0.4375 0  0.3125 0.4375 0  0.34375 0.4375 0  0.375 0.4375 0  0.40625 0.4375 0  0.4375 0.4375 0  0.46875 0.4375 0  0.5 0.4375 0  0.53125 0.4375 0  0.5625 0.4375 0  0.59375 0.4375 0  0.625 0.4375 0  0.65625 0.4375 0  0.6875 0.4375 0  0.71875 0.4375 0  0.75 0.4375 0  0.78125 0.4375 0  0.8125 0.4375 0  0.84375 0.4375 0  0.875 0.4375 0  0.90625 0.4375 0  0.9375 0.4375 0  0.96875 0.4375 0  1 0.4375 0  0 0.46875 0  0.03125 0.46875 0  0.0625 0.46875 0  0.09375 0.46875 0  0.125 0.46875 0  0.15625 0.46875 0  0.1875 0.46875 0  0.21875 0.46875 0  0.25 0.46875 0  0.28125 0.46875 0  0.3125 0.46875 0  0.34375 0.46875 0  0.375 0.46875 0  0.40625 0.46875 0  0.4375 0.46875 0  0.46875 0.46875 0  0.5 0.46875 0  0.53125 0.46875 0  0.5625 0.46875 0  0.59375 0.46875 0  0.625 0.46875 0  0.65625 0.46875 0  0.6875 0.46875 0  0.71875 0.46875 0  0.75 0.46875 0  0.78125 0.46875 0  0.8125 0.46875 0  0.84375 0.46875 0  0.875 0.46875 0  0.90625 0.46875 0  0.9375 0.46875 0  0.96875 0.46875 0  1 0.46875 0  0 0.5 0  0.03125 0.5 0  0.0625 0.5 0  0.09375 0.5 0  0.125 0.5 0  0.15625 0.5 0  0.1875 0.5 0  0.21875 0.5 0  0.25 0.5 0  0.28125 0.5 0  0.3125 0.5 0  0.34375 0.5 0  0.375 0.5 0  0.40625 0.5 0  0.4375 0.5 0  0.46875 0.5 0  0.5 0.5 0  0.53125 0.5 0  0.5625 0.5 0  0.59375 0.5 0  0.625 0.5 0  0.65625 0.5 0  0.6875 0.5 0  0.71875 0.5 0  0.75 0.5 0  0.78125 0.5 0  0.8125 0.5 0  0.84375 0.5 0  0.875 0.5 0  0.90625 0.5 0  0.9375 0.5 0  0.96875 0.5 0  1 0.5 0  0 0.53125 0  0.03125 0.53125 0  0.0625 0.53125 0  0.09375 0.53125 0  0.125 0.53125 0  0.15625 0.53125 0  0.1875 0.53125 0  0.21875 0.53125 0  0.25 0.53125 0  0.28125 0.53125 0  0.3125 0.53125 0  0.34375 0.53125 0  0.375 0.53125 0  0.40625 0.53125 0  0.4375 0.53125 0  0.46875 0.53125 0  0.5 0.53125 0  0.53125 0.53125 0  0.5625 0.53125 0  0.59375 0.53125 0  0.625 0.53125 0  0.65625 0.53125 0  0.6875 0.53125 0  0.71875 0.53125 0  0.75 0.53125 0  0.78125 0.531
[...]
<PointData  Scalars="ControlVisualisation"> 
<DataArray  type="Float64"  Name="ControlVisualisation"  format="ascii">4.7244776306863517e-01  4.6429571600018471e-01  4.5596884373631791e-01  4.4329871175556690e-01  4.3011742360512772e-01  4.1205214590588757e-01  3.9444659498386736e-01  3.7542417145278512e-01  3.5584010067124039e-01  3.3672911805180322e-01  3.1854238250913941e-01  3.0259609892288092e-01  2.8884145308252906e-01  2.7772584116615823e-01  2.6974712120906669e-01  2.6453280398226603e-01  2.6316068386669161e-01  2.6590961850389189e-01  2.7272276439825432e-01  2.8242710965637480e-01  2.9580160086890733e-01  3.1158405701414471e-01  3.2997181621702804e-01  3.5027901812137041e-01  3.7155512504165100e-01  3.9236955326527012e-01  4.1264433983885362e-01  4.3087613199896407e-01  4.4806803995503292e-01  4.6028350134195001e-01  4.7287283230648192e-01  4.8056152780094114e-01  4.8902106300031772e-01  4.6363431672515482e-01  4.6387216964427691e-01  4.4908860477711798e-01  4.4133255469447241e-01  4.2129748877806644e-01  4.0745140278448727e-01  3.9160302559721888e-01  3.7276242236096335e-01  3.5311162439115590e-01  3.3498688130139193e-01  3.1774723405012201e-01  3.0160350610256370e-01  2.8887082997391433e-01  2.7812774048293870e-01  2.6975924734055179e-01  2.6569204782004913e-01  2.6414395470020741e-01  2.6701164332058797e-01  2.7238037277468891e-01  2.8263488144511772e-01  2.9468116426264840e-01  3.1004184225016435e-01  3.2741531808791713e-01  3.4753706011534008e-01  3.6720171399778656e-01  3.8842895887717743e-01  4.0790650765311232e-01  4.2406471472405038e-01  4.3874834489856557e-01  4.5674178167894858e-01  4.6420963107036534e-01  4.7889669416552644e-01  4.7944478945410141e-01  4.5481209673849393e-01  4.4673553409378269e-01  4.4045485628428810e-01  4.2795644020061929e-01  4.1901276909599988e-01  4.0636234242391184e-01  3.8443934810087338e-01  3.6436502350135724e-01  3.4922779364079365e-01  3.2814452331529548e-01  3.1068209264705882e-01  2.9558759278973845e-01  2.8121527927037560e-01  2.7028828854600739e-01  2.6281145058064909e-01  2.5761164865246239e-01  2.5699773904220818e-01  2.5919444053736801e-01  2.6576129392708403e-01  2.7530047268653068e-01  2.8789560547082665e-01  3.0399398818842405e-01  3.2135516467000569e-01  3.4022422056729734e-01  3.6315272611984911e-01  3.8055333786375023e-01  4.0096972509936002e-01  4.2222718741303467e-01  4.3450503608440888e-01  4.4462810633519795e-01  4.5397061923369891e-01  4.6111341402368405e-01  4.7015752930542709e-01  4.3982313202036366e-01  4.3753052792157188e-01  4.2786088761889923e-01  4.2633060553662250e-01  4.0532083629086924e-01  3.8881154533760898e-01  3.7177277378097484e-01  3.5770093278655929e-01  3.3695918575293560e-01  3.2032338939233823e-01  3.0168837965923007e-01  2.8709998009792687e-01  2.7328102676683563e-01  2.6381664528448612e-01  2.5531843014968736e-01  2.5083697648434533e-01  2.5184261306552885e-01  2.5203475299190092e-01  2.5863422623695248e-01  2.6797963032598832e-01  2.8069286547018585e-01  2.9540275745819827e-01  3.1304163510579941e-01  3.3290761200133051e-01  3.5083281228128704e-01  3.7299642125162413e-01  3.8904371010070210e-01  4.0560717560173448e-01  4.2054311498311669e-01  4.4210627835060129e-01  4.4270498276687636e-01  4.5015041157613428e-01  4.5406835726477979e-01  4.2428342824809834e-01  4.1792537394423751e-01  4.1777139723052087e-01  4.0291308716097163e-01  3.8232481361391119e-01  3.8338500759394606e-01  3.6369124272039044e-01  3.4069414898026062e-01  3.3010180198190386e-01  3.0572461201748391e-01  2.9099309651804328e-01  2.7598536138044449e-01  2.6161743602597221e-01  2.5295561524836685e-01  2.4283426115372328e-01  2.4160423512134083e-01  2.3758443466475715e-01  2.4265773696606438e-01  2.4497039204153309e-01  2.5696499508685394e-01  2.6635076788720874e-01  2.8425873016528680e-01  2.9983761508754952e-01  3.1867364397344683e-01  3.4224938284385303e-01  3.5437227315184577e-01  3.7865771428490536e-01  3.9754722770236200e-01  3.9589133302708784e-01  4.1729041336655986e-01  4.2987405166505011e-01  4.2946284049953226e-01  4.3814074203820941e-01  4.0621950066370871e-01  4.0130220597543670e-01  4.0480653812721124e-01  3.8433639760845806e-01  3.8155563204396181e-01  3.7270033295126809e-01  3.4006266013207925e-01  3.3213245343740710e-01  3.1002553557136986e-01  2.9180234068921740e-01  2.7531659121725460e-01  2.5719693404719735e-01  2.4567753860741356e-01  2.3221021814521645e-01  2.2696956698195703e-01  2.1952057108036804e-01  2.2387523159718392e-01  2.2131042032699974e-01  2.2931744498117429e-01  2.3679092842049684e-01  2.5103817393643330e-01  2.6406017040525093e-01  2.8439191794349733e-01  3.0277428320831007e-01  3.2428841290836335e-01  3.4436036128816561e-01  3.5549040235248325e-01  3.8662552828393792e-01  3.9281112428852749e-01  3.9796394504629901e-01  4.1630203428000240e-01  4.1180842599348166e-01  4.1845994050356455e-01  3.8931413791953062e-01  3.8459334197828116e-01  3.8320790026628787e-01  3.6997658754713120e-01  3.6455677065493386e-01  3.4323521914251109e-01  3.2979826656446676e-01  3.1117267981137198e-01  2.9632563539186113e-01  2.7460139290488600e-01  2.5458474951861187e-01  2.4065676173395034e-01  2.2267241977355295e-01  2.1674443430144538e-01  2.0562593028973472e-01  2.0500620771410008e-01  2.0335020430749742e-01  2.0555238186436109e-01  2.0989651613939678e-01  2.2068221741578362e-01  2.3012071433613018e-01  2.4841654275034625e-01  2.6343908899238894e-01  2.8487461603076392e-01  3.0888907244419012e-01  3.2491974395336098e-01  3.4263737146568574e-01  3.5771902425817487e-01  3.7432445956593247e-01  3.8156717788416994e-01  3.9405832328008905e-01  3.9371068650296825e-01  3.9919225827816296e-01  3.7236805551952751e-01  3.6720131361020203e-01  3.6505484643263753e-01  3.5749273309082641e-01  3.4086431867322764e-01  3.3412446126287143e-01  3.0987507653637125e-01  2.9548400022022625e-01  2.7517118325452206e-01  2.5075619924977782e-01  2.3338818620241747e-01  2.1285047066876045e-01  2.0189012740043261e-01  1.8885338053579676e-01  1.8101215420252786e-01  1.7845944850796200e-01  1.7684049322331682e-01  1.8010166145227025e-01  1.8232010375185015e-01  1.9423075366835962e-01  2.0654098749873956e-01  2.2214642998417092e-01  2.4219092953196958e-01  2.5972557797773682e-01  2.8590423897937867e-01  3.0711192616545424e-01  3.2229068385756271e-01  3.4523792675484527e-01  3.4982526518321833e-01  3.6569917736115687e-01  3.7326612758685335e-01  3.7335209891488585e-01  3.8031086483491156e-01  3.5653055844863379e-01  3.4939275225278399e-01  3.5406675675184635e-01  3.3880425701076394e-01  3.3009442079682733e-01  3.1549799869228923e-01  2.9580331107380514e-01  2.7550419662082443e-01  2.5489886250277105e-01  2.3028193017501603e-01  2.0539281773894716e-01  1.8844204875363407e-01  1.7060622823330368e-01  1.5771430852636092e-01  1.5207533005644913e-01  1.4520724842624042e-01  1.5008780818131945e-01  1.4730670601890436e-01  1.5566192222073763e-01  1.6279522589869549e-01  1.7768795947577185e-01  1.9565757713543341e-01  2.1651489367937590e-01  2.3870745256445641e-01  2.6288723220060001e-01  2.8501483426171481e-01  3.0533658285425591e-01  3.2465526483222990e-01  3.3633617483193584e-01  3.4570514902949734e-01  3.5861155497316083e-01  3.5308468061199350e-01  3.6216730612085174e-01  3.4144171661978401e-01  3.3687532080024990e-01  3.3821401970331577e-01  3.2584872640969120e-01  3.1251160743266659e-01  3.0211680958179238e-01  2.7747550157358292e-01  2.5525503242583619e-01  2.3511304173950462e-01  2.0137055504981580e-01  1.7925954333100785e-01  1.5814199239074067e-01  1.3791554805009670e-01  1.2525446541350421e-01  1.1645756395961937e-01  1.1389272733328815e-01  1.1477170503890687e-01  1.1692196847888504e-01  1.2321400633050904e-01  1.3240754064901022e-01  1.4657372308641609e-01  1.6648401129134766e-01  1.8963876939284638e-01  2.1233378490955865e-01  2.4227515630392904e-01  2.6200831531209368e-01  2.8517391349539079e-01  3.0796143882317017e-01  3.1547881759326124e-01  3.3042181308936613e-01  3.4108710267795483e-01  3.3720204668346904e-01  3.4417882225280100e-01  3.2943825283152711e-01  3.2387126893628926e-01  3.2594349759072427e-01  3.1203551029714560e-01  2.9877489067228313e-01  2.8822980208370269e-01  2.5898932294729293e-01  2.3883968827837915e-01  2.1070075202431088e-01  1.7984186811241071e-01  1.5477843101173824e-01  1.2760421204314346e-01  1.0334179914112475e-01  8.7749907321210824e-02  7.8616635209772245e-02  7.5668056381470658e-02  7.7258109782791851e-02  8.1665663870811395e-02  8.6566088202776156e-02  1.0077462675510929e-01  1.1266630277041859e-01  1.3602996929463579e-01  1.6141532610657183e-01  1.8824983789451449e-01  2.1711347177821738e-01  2.4343544962464933e-01  2.6335491629626107e-01  2.9199114481248750e-01  2.9855890771900784e-01  3.1284859422502198e-01  3.2612612475445801e-01  3.2168096146126762e-01  3.2888682545893488e-01  3.1972558739650825e-01  3.1410034100281453e-01  3.1707987984507841e-01  3.0096480620285182e-01  2.9091930749621481e-01  2.7503652398012557e-01  2.4757468843093483e-01  2.2092817298125372e-01  1.9757514488801614e-01  1.6317053817396487e-01  1.3011958037012017e-01  1.0165802767980991e-01  7.2889060384833712e-02  5.8135898241777069e-02  5.2451492070020513e-02  4.3364688033324300e-02  4.2021793258894526e-02  4.7527077627076274e-02  5.6291970390461694e-02  7.0097737548473191e-02  8.6015926569155507e-02  1.0922277063759901e-01  1.3720588819496080e-01  1.6605587486909570e-01  1.9917575522137559e-01  2.2185708191698542e-01  2.4902663897260216e-01  2.7463321979137334e-01  2.8791704011762342e-01  2.9904797460811328e-01  3.1381568671535010e-01  3.0879558346494423e-01  3.1634092231562688e-01  3.1266946303415061e-01  3.0680500362676683e-01  3.0834441267850349e-01  2.9539619329513717e-01  2.7942408555781939e-01  2.6666932558542211e-01  2.3273274291190008e-01  2.1364342754935833e-01  1.8538889566278266e-01  1.4264761271135229e-01  1.1083042521721805e-01  8.3942373972747716e-02  5.0071656427978992e-02  3.3892475087692622e-02  2.3328760951753458e-02  2.2917517037173103e-02  2.8870138193862447e-02  2.0487462897100808e-02  3.3766429716320698e-02  3.9709888658515186e-02  6.4011275050096531e-02  8.3646397229516056e-02  1.1602082200897014e-01  1.4892799345262539e-01  1.8310456682873841e-01  2.0913301094004735e-01  2.3000932953980796e-01  2.6388631796604034e-01  2.7279122086172425e-01  2.9082413335647261e-01  3.0271121372200771e-01  2.9833660560910391e-01  3.0649083597611793e-01  3.0797156645277335e-01  3.0102091214391102e-01  3.0468489480917960e-01  2.8712433837072299e-01  2.7473555610916334e-01  2.5730410088260458e-01  2.2834634436066242e-01  2.0697941364829620e-01  1.6961885290389031e-01  1.2854508656631847e-01  1.1055872705479088e-01  7.5729055542553686e-02  3.9904205229970048e-02  6.0628250263077641e-03  5.7579383742103855e-04  9.4253806515739620e-03  7.2091117652146163e-03  9.4198574052680884e-03  1.2286946242492144e-02  1.8786237696026161e-02  3.3383610147364948e-02  6.6516946941883287e-02  9.6144867483430207e-02  1.3120576015464983e-01  1.7348456154550909e-01  2.0061623922341912e-01  2.2126067091908613e-01  2.5063364523586534e-01  2.6614910531279834e-01  2.8020292029092847e-01  2.9657029168113236e-01  2.9008894451643857e-01  2.9915031730424596e-01  3.0503643728819846e-01  2.9818013873863691e-01  2.9986756218326693e-01  2.8446149414702360e-01  2.6924984957631687e-01  2.5174907386618761e-01  2.2478611308621838e-01  1.9537276923502234e-01  1.5935400111156098e-01  1.3584692515935004e-01  1.0290598131977038e-01  5.4436432641412701e-02  4.3852492656480987e-02  1.1746932318770905e-04  1.3416613745170539e-05  2.0205806800847738e-03  4.0137596814628518e-03  3.6780731964634128e-03  3.2394762546555556e-03  7.7350520821963895e-03  1.7938962827173676e-02  5.5943756274785747e-02  7.9647011916882143e-02  1.1657344983963039e-01  1.6012196276395041e-01  1.9356359621216995e-01  2.1693921574083871e-01  2.4323632791169611e-01  2.5803496625972144e-01  2.7609315612654267e-01  2.9028531646583566e-01  2.8495883462668703e-01  2.9428621712660924e-01  3.0372210768936370e-01  2.9577182877215508e-01  2.9971322286086316e-01  2.8081848487027589e-01  2.6689584236314223e-01  2.4979240088264859e-01  2.2060734229610726e-01  1.9067244585664567e-01  1.5507239656280383e-01  1.2316353131759029e-01  7.6959725665084994e-02  3.5043566794523723e-02  2.2393817014096672e-02  2.3345875575540513e-02  1.1704783127026243e-05  5.7653766829376712e-06  2.0847178721830774e-05  7.8627900428659611e-04  4.4176078600938765e-04  1.0816705634945710e-03  4.4092524579449127e-03  6.7448944542659081e-02  8.7594911882641568e-02  1.0479099929451217e-01  1.5003913413718817e-01  1.8815550984923646e-01  2.1373249006598108e-01  2.4070501982108972e-01  2.5523197362443611e-01  2.7163467217095499e-01  2.8907069246965372e-01  2.8154339302520492e-01  2.9178727855028508e-01  3.0334110591570868e-01  2.9710178851004659e-01  2.9747181464997041e-01  2.8337288793154070e-01  2.6524462844400681e-01  2.5059173111631888e-01  2.1921182016099261e-01  1.8722704798075412e-01  1.4917623562242371e-01  1.1621685526138995e-01  1.0113822704346957e-01  7.0866657317574147e-02  4.1256970853347955e-04  6.8070430579527278e-05  4.4545363940404324e-05  1.3872722341142674e-05  8.2857147124374969e-06  6.2738184384105926e-06  1.3761094661113928e-05  3.8664762029181050e-05  1.0925516242189361e-04  2.9864336718351710e-03  1.0249038252825061e-01  1.1402438699153415e-01  1.4627842384238571e-01  1.8558000115346765e-01  2.1314454754872095e-01  2.4254435488017689e-01  2.5381719065836073e-01  2.7421109047668235e-01  2.8711926348610767e-01  2.8245511810417229e-01  2.9127706235251316e-01  3.0524089427669066e-01  2.9715890324281752e-01  3.0072829712984972e-01  2.8129336477230210e-01  2.6657444148437509e-01  2.4836849873526740e-01  2.1906755630576832e-01  1.8902390717401857e-01  1.4677730026169564e-01  1.0429782305839849e-01  6.7912134923938230e-02  3.0772740229206140e-02  1.8899216225740355e-04  4.6273203924346589e-04  2.7545120607857062e-04  1.2010496269679712e-04  1.0535247119640193e-04  4.4389354606300993e-05  1.9837355497277808e-05  2.5575596193161549e-05  5.6907606876333809e-05  1.0067876411376520e-07  8.9985952688989596e-02  1.1149441829039641e-01  1.4862312809083145e-01  1.8589289650016882e-01  2.1511336416049889e-01  2.4200234405483395e-01  2.5685062127615149e-01  2.7348181363145907e-01  2.9099682942195265e-01  2.8338929563630560e-01  2.9391462623213832e-01  3.0790651886567377e-01  3.0088172026954862e-01  3.0193209224103573e-01  2.8565356235420242e-01  2.6914662833798092e-01  2.4974401883828687e-01  2.2127993857242462e-01  1.9327082976080046e-01  1.5276110625035369e-01  1.0956847480788068e-01  7.0811105820096171e-02  4.0015697107592514e-02  6.3391476842038106e-03  4.1496889440680229e-03  5.5135167294753078e-03  6.9553958204008467e-03  8.2824262372807201e-03  6.5157615919104444e-03  5.4281894767997836e-03  4.2443512657739865e-03  1.0382484770653965e-02  4.9684072368198398e-02  8.5773876483156111e-02  1.1581045460754136e-01  1.5127799204058495e-01  1.9125407804602468e-01  2.1923699410186029e-01  2.4666169243917574e-01  2.6099825258770343e-01  2.7925590755893942e-01  2.9390516716084908e-01  2.8874322235738525e-01  2.9817585224465409e-01  3.1196741780211734e-01  3.0477382729906638e-01  3.0761932715383800e-01  2.8902897602357608e-01  2.7523440133320942e-01  2.5556333005955506e-01  2.2407081869212311e-01  2.0242373778364917e-01  1.6646071253676975e-01  1.1867448611064692e-01  8.4709702418840419e-02  5.1460302266310085e-02  2.8668760276345628e-02  1.8637307347078115e-02  1.5817511525467530e-02  1.6189829952610715e-02  1.5234061364899279e-02  1.5925269609832763e-02  1.5028891200622323e-02  1.6332287233008912e-02  2.7466402551110637e-02  5.6463618931833312e-02  8.8879309756443689e-02  1.1879850757612143e-01  1.6746559721148005e-01  2.0342131529716878e-01  2.2635406906812838e-01  2.5392384105858851e-01  2.6927578657501383e-01  2.8499695094547933e-01  3.0171110935881534e-01  2.9469392321864918e-01  3.0452175303045020e-01  3.1738866174689478e-01  3.1130482299699241e-01  3.1200894412792640e-01  2.9804682452567560e-01  2.8099385158130685e-01  2.6659313479178537e-01  2.2989898908331274e-01  2.0948330140526522e-01  1.8193675716882182e-01  1.4053890450145995e-01  1.0649644026053626e-01  7.5782409449891314e-02  5.4185254607537217e-02  4.6163932767531189e-02  3.7401087937065189e-02  3.6128641147563527e-02  3.6619558569791516e-02  3.4450739146107787e-02  3.5789824878774808e-02  4.5576416733393438e-02  5.4124472958710826e-02  7.9113240452245992e-02  1.0824311046602557e-01  1.4436007128747619e-01  1.8618764994817463e-01  2.1371198715830414e-01  2.3322977714816331e-01  2.6671894844853200e-01  2.7727718708907068e-01  2.9606009325309507e-01  3.0832443580830099e-01  3.0412346553155795e-01  3.1245931128021542e-01  3.2465134417495678e-01  3.1889261000142971e-01  3.2114894435196756e-01  3.0417847808226756e-01  2.9336804122360727e-01  2.7671144138475995e-01  2.4775945281888562e-01  2.1963830762479497e-01  1.9692829019078506e-01  1.6412252027541893e-01  1.3376772693457273e-01  1.0759935313258046e-01  8.6285742652570663e-02  7.2505934006384304e-02  6.6795938675242569e-02  6.2524519951037333e-02  5.7869775038357940e-02  6.0455842894519704e-02  6.4294352975762359e-02  7.0787236933768177e-02  8.6083990314553036e-02  1.0901171035375115e-01  1.3663320398387713e-01  1.6938960530075889e-01  2.0179321563105529e-01  2.2419311749275206e-01  2.5229721292198709e-01  2.7818568206406913e-01  2.9191621165216003e-01  3.0529898501708957e-01  3.2019409994172449e-01  3.1421761888354865e-01  3.2251054204167356e-01  3.3400771679836316e-01  3.2839583747213114e-01  3.3007763170814608e-01  3.1568753477328027e-01  3.0195904478779373e-01  2.9122613377526607e-01  2.6142083918978742e-01  2.4145806954067980e-01  2.1359649120495414e-01  1.8470934392154831e-01  1.6179316282475398e-01  1.3730725726273185e-01  1.1742553210890974e-01  1.0618808961163667e-01  9.4116649035600269e-02  9.0427968695889038e-02  8.9768198413463562e-02  8.9086840260630490e-02  9.1961543943251206e-02  1.0451933202218953e-01  1.1653101637799540e-01  1.3805794629063722e-01  1.6481555108263396e-01  1.8978708118982651e-01  2.1811549688881507e-01  2.4736018018529393e-01  2.6659802390491644e-01  2.9487377760684735e-01  3.0420344048716874e-01  3.1908186864099825e-01  3.3105326424199505e-01  3.2656232799414198e-01  3.3461767529146985e-01  3.4530222171268615e-01  3.4060037928114162e-01  3.4197593818748578e-01  3.2961576421860339e-01  3.1689218813520870e-01  3.0668933861941133e-01  2.8216010173061562e-01  2.6038325960562114e-01  2.4223406445677043e-01  2.1018133950797432e-01  1.8992741702780624e-01  1.6929196089342446e-01  1.5255326808088293e-01  1.3937491513805658e-01  1.3115644967918830e-01  1.2641587564927576e-01  1.2575449460053204e-01  1.2562093126829441e-01  1.3019208104434854e-01  1.3846460570941457e-01  1.5239896107429224e-01  1.7034691884549474e-01  1.9343459250208977e-01  2.1456388068819723e-01  2.4802083951874543e-01  2.6647651005968692e-01  2.8851328760901074e-01  3.1318625631958780e-01  3.2061388033370986e-01  3.3434559245301615e-01  3.4507238751426383e-01  3.4152972524424274e-01  3.4828141210053959e-01  3.5912302516647981e-01  3.5181131089674811e-01  3.5675762054248311e-01  3.4186860832141730e-01  3.3432193116802433e-01  3.2146602766339227e-01  3.0251382170092395e-01  2.8311820273893168e-01  2.6376950491646672e-01  2.4184311902747599e-01  2.1993093460252711e-01  2.0283065884676976e-01  1.8464809069765825e-01  1.7596167802486462e-01  1.6517283665165169e-01  1.6203895352162537e-01  1.6145319691942472e-01  1.6169173511326795e-01  1.6527771304288580e-01  1.7608864229250717e-01  1.8547253061631153e-01  2.0482538664203204e-01  2.2341866624821091e-01  2.4707857003298631e-01  2.6997107964353834e-01  2.8957941586914221e-01  3.1090366131274511e-01  3.2906420417507315e-01  3.3943368967235571e-01  3.4885455558189393e-01  3.6244812787294478e-01  3.5482945623699691e-01  3.6426109766777415e-01  3.7287782853930812e-01  3.6786876803547602e-01  3.6653965334837241e-01  3.595354028