<?xml version="1.0"?>
<VTKFile type="UnstructuredGrid"  version="0.1"  >
<UnstructuredGrid>
<Piece  NumberOfPoints="1089" NumberOfCells="2048">
<Points>
<DataArray  type="Float64"  NumberOfComponents="3"  format="ascii">0 0 0  0.03125 0 0  0.0625 0 0  0.09375 0 0  0.125 0 0  0.15625 0 0  0.1875 0 0  0.21875 0 0  0.25 0 0  0.28125 0 0  0.3125 0 0  0.34375 0 0  0.375 0 0  0.40625 0 0  0.4375 0 0  0.46875 0 0  0.5 0 0  0.53125 0 0  0.5625 0 0  0.59375 0 0  0.625 0 0  0.65625 0 0  0.6875 0 0  0.71875 0 0  0.75 0 0  0.78125 0 0  0.8125 0 0  0.84375 0 0  0.875 0 0  0.90625 0 0  0.9375 0 0  0.96875 0 0  1 0 0  0 0.03125 0  0.03125 0.03125 0  0.0625 0.03125 0  0.09375 0.03125 0  0.125 0.03125 0  0.15625 0.03125 0  0.1875 0.03125 0  0.21875 0.03125 0  0.25 0.03125 0  0.28125 0.03125 0  0.3125 0.03125 0  0.34375 0.03125 0  0.375 0.03125 0  0.40625 0.03125 0  0.4375 0.03125 0  0.46875 0.03125 0  0.5 0.03125 0  0.53125 0.03125 0  0.5625 0.03125 0  0.59375 0.03125 0  0.625 0.03125 0  0.65625 0.03125 0  0.6875 0.03125 0  0.71875 0.03125 0  0.75 0.03125 0  0.78125 0.03125 0  0.8125 0.03125 0  0.84375 0.03125 0  0.875 0.03125 0  0.90625 0.03125 0  0.9375 0.03125 0  0.96875 0.03125 0  1 0.03125 0  0 0.0625 0  0.03125 0.0625 0  0.0625 0.0625 0  0.09375 0.0625 0  0.125 0.0625 0  0.15625 0.0625 0  0.1875 0.0625 0  0.21875 0.0625 0  0.25 0.0625 0  0.28125 0.0625 0  0.3125 0.0625 0  0.34375 0.0625 0  0.375 0.0625 0  0.40625 0.0625 0  0.4375 0.0625 0  0.46875 0.0625 0  0.5 0.0625 0  0.53125 0.0625 0  0.5625 0.0625 0  0.59375 0.0625 0  0.625 0.0625 0  0.65625 0.0625 0  0.6875 0.0625 0  0.71875 0.0625 0  0.75 0.0625 0  0.78125 0.0625 0  0.8125 0.0625 0  0.84375 0.0625 0  0.875 0.0625 0  0.90625 0.0625 0  0.9375 0.0625 0  0.96875 0.0625 0  1 0.0625 0  0 0.09375 0  0.03125 0.09375 0  0.0625 0.09375 0  0.09375 0.09375 0  0.125 0.09375 0  0.15625 0.09375 0  0.1875 0.09375 0  0.21875 0.09375 0  0.25 0.09375 0  0.28125 0.09375 0  0.3125 0.09375 0  0.34375 0.09375 0  0.375 0.09375 0  0.40625 0.09375 0  0.4375 0.09375 0  0.46875 0.09375 0  0.5 0.09375 0  0.53125 0.09375 0  0.5625 0.09375 0  0.59375 0.09375 0  0.625 0.09375 0  0.65625 0.09375 0  0.6875 0.09375 0  0.71875 0.09375 0  0.75 0.09375 0  0.78125 0.09375 0  0.8125 0.09375 0  0.84375 0.09375 0  0.875 0.09375 0  0.90625 0.09375 0  0.9375 0.09375 0  0.96875 0.09375 0  1 0.09375 0  0 0.125 0  0.03125 0.125 0  0.0625 0.125 0  0.09375 0.125 0  0.125 0.125 0  0.15625 0.125 0  0.1875 0.125 0  0.21875 0.125 0  0.25 0.125 0  0.28125 0.125 0  0.3125 0.125 0  0.34375 0.125 0  0.375 0.125 0  0.40625 0.125 0  0.4375 0.125 0  0.46875 0.125 0  0.5 0.125 0  0.53125 0.125 0  0.5625 0.125 0  0.59375 0.125 0  0.625 0.125 0  0.65625 0.125 0  0.6875 0.125 0  0.71875 0.125 0  0.75 0.125 0  0.78125 0.125 0  0.8125 0.125 0  0.84375 0.125 0  0.875 0.125 0  0.90625 0.125 0  0.9375 0.125 0  0.96875 0.125 0  1 0.125 0  0 0.15625 0  0.03125 0.15625 0  0.0625 0.15625 0  0.09375 0.15625 0  0.125 0.15625 0  0.15625 0.15625 0  0.1875 0.15625 0  0.21875 0.15625 0  0.25 0.15625 0  0.28125 0.15625 0  0.3125 0.15625 0  0.34375 0.15625 0  0.375 0.15625 0  0.40625 0.15625 0  0.4375 0.15625 0  0.46875 0.15625 0  0.5 0.15625 0  0.53125 0.15625 0  0.5625 0.15625 0  0.59375 0.15625 0  0.625 0.15625 0  0.65625 0.15625 0  0.6875 0.15625 0  0.71875 0.15625 0  0.75 0.15625 0  0.78125 0.15625 0  0.8125 0.15625 0  0.84375 0.15625 0  0.875 0.15625 0  0.90625 0.15625 0  0.9375 0.15625 0  0.96875 0.15625 0  1 0.15625 0  0 0.1875 0  0.03125 0.1875 0  0.0625 0.1875 0  0.09375 0.1875 0  0.125 0.1875 0  0.15625 0.1875 0  0.1875 0.1875 0  0.21875 0.1875 0  0.25 0.1875 0  0.28125 0.1875 0  0.3125 0.1875 0  0.34375 0.1875 0  0.375 0.1875 0  0.40625 0.1875 0  0.4375 0.1875 0  0.46875 0.1875 0  0.5 0.1875 0  0.53125 0.1875 0  0.5625 0.1875 0  0.59375 0.1875 0  0.625 0.1875 0  0.65625 0.1875 0  0.6875 0.1875 0  0.71875 0.1875 0  0.75 0.1875 0  0.78125 0.1875 0  0.8125 0.1875 0  0.84375 0.1875 0  0.875 0.1875 0  0.90625 0.1875 0  0.9375 0.1875 0  0.96875 0.1875 0  1 0.1875 0  0 0.21875 0  0.03125 0.21875 0  0.0625 0.21875 0  0.09375 0.21875 0  0.125 0.21875 0  0.15625 0.21875 0  0.1875 0.21875 0  0.21875 0.21875 0  0.25 0.21875 0  0.28125 0.21875 0  0.3125 0.21875 0  0.34375 0.21875 0  0.375 0.21875 0  0.40625 0.21875 0  0.4375 0.21875 0  0.46875 0.21875 0  0.5 0.21875 0  0.53125 0.21875 0  0.5625 0.21875 0  0.59375 0.21875 0  0.625 0.21875 0  0.65625 0.21875 0  0.6875 0.21875 0  0.71875 0.21875 0  0.75 0.21875 0  0.78125 0.21875 0  0.8125 0.21875 0  0.84375 0.21875 0  0.875 0.21875 0  0.90625 0.21875 0  0.9375 0.21875 0  0.96875 0.21875 0  1 0.21875 0  0 0.25 0  0.03125 0.25 0  0.0625 0.25 0  0.09375 0.25 0  0.125 0.25 0  0.15625 0.25 0  0.1875 0.25 0  0.21875 0.25 0  0.25 0.25 0  0.28125 0.25 0  0.3125 0.25 0  0.34375 0.25 0  0.375 0.25 0  0.40625 0.25 0  0.4375 0.25 0  0.46875 0.25 0  0.5 0.25 0  0.53125 0.25 0  0.5625 0.25 0  0.59375 0.25 0  0.625 0.25 0  0.65625 0.25 0  0.6875 0.25 0  0.71875 0.25 0  0.75 0.25 0  0.78125 0.25 0  0.8125 0.25 0  0.84375 0.25 0  0.875 0.25 0  0.90625 0.25 0  0.9375 0.25 0  0.96875 0.25 0  1 0.25 0  0 0.28125 0  0.03125 0.28125 0  0.0625 0.28125 0  0.09375 0.28125 0  0.125 0.28125 0  0.15625 0.28125 0  0.1875 0.28125 0  0.21875 0.28125 0  0.25 0.28125 0  0.28125 0.28125 0  0.3125 0.28125 0  0.34375 0.28125 0  0.375 0.28125 0  0.40625 0.28125 0  0.4375 0.28125 0  0.46875 0.28125 0  0.5 0.28125 0  0.53125 0.28125 0  0.5625 0.28125 0  0.59375 0.28125 0  0.625 0.28125 0  0.65625 0.28125 0  0.6875 0.28125 0  0.71875 0.28125 0  0.75 0.28125 0  0.78125 0.28125 0  0.8125 0.28125 0  0.84375 0.28125 0  0.875 0.28125 0  0.90625 0.28125 0  0.9375 0.28125 0  0.96875 0.28125 0  1 0.28125 0  0 0.3125 0  0.03125 0.3125 0  0.0625 0.3125 0  0.09375 0.3125 0  0.125 0.3125 0  0.15625 0.3125 0  0.1875 0.3125 0  0.21875 0.3125 0  0.25 0.3125 0  0.28125 0.3125 0  0.3125 0.3125 0  0.34375 0.3125 0  0.375 0.3125 0  0.40625 0.3125 0  0.4375 0.3125 0  0.46875 0.3125 0  0.5 0.3125 0  0.53125 0.3125 0  0.5625 0.3125 0  0.59375 0.3125 0  0.625 0.3125 0  0.65625 0.3125 0  0.6875 0.3125 0  0.71875 0.3125 0  0.75 0.3125 0  0.78125 0.3125 0  0.8125 0.3125 0  0.84375 0.3125 0  0.875 0.3125 0  0.90625 0.3125 0  0.9375 0.3125 0  0.96875 0.3125 0  1 0.3125 0  0 0.34375 0  0.03125 0.34375 0  0.0625 0.34375 0  0.09375 0.34375 0  0.125 0.34375 0  0.15625 0.34375 0  0.1875 0.34375 0  0.21875 0.34375 0  0.25 0.34375 0  0.28125 0.34375 0  0.3125 0.34375 0  0.34375 0.34375 0  0.375 0.34375 0  0.40625 0.34375 0  0.4375 0.34375 0  0.46875 0.34375 0  0.5 0.34375 0  0.53125 0.34375 0  0.5625 0.34375 0  0.59375 0.34375 0  0.625 0.34375 0  0.65625 0.34375 0  0.6875 0.34375 0  0.71875 0.34375 0  0.75 0.34375 0  0.78125 0.34375 0  0.8125 0.34375 0  0.84375 0.34375 0  0.875 0.34375 0  0.90625 0.34375 0  0.9375 0.34375 0  0.96875 0.34375 0  1 0.34375 0  0 0.375 0  0.03125 0.375 0  0.0625 0.375 0  0.09375 0.375 0  0.125 0.375 0  0.15625 0.375 0  0.1875 0.375 0  0.21875 0.375 0  0.25 0.375 0  0.28125 0.375 0  0.3125 0.375 0  0.34375 0.375 0  0.375 0.375 0  0.40625 0.375 0  0.4375 0.375 0  0.46875 0.375 0  0.5 0.375 0  0.53125 0.375 0  0.5625 0.375 0  0.59375 0.375 0  0.625 0.375 0  0.65625 0.375 0  0.6875 0.375 0  0.71875 0.375 0  0.75 0.375 0  0.78125 0.375 0  0.8125 0.375 0  0.84375 0.375 0  0.875 0.375 0  0.90625 0.375 0  0.9375 0.375 0  0.96875 0.375 0  1 0.375 0  0 0.40625 0  0.03125 0.40625 0  0.0625 0.40625 0  0.09375 0.40625 0  0.125 0.40625 0  0.15625 0.40625 0  0.1875 0.40625 0  0.21875 0.40625 0  0.25 0.40625 0  0.28125 0.40625 0  0.3125 0.40625 0  0.34375 0.40625 0  0.375 0.40625 0  0.40625 0.40625 0  0.4375 0.40625 0  0.46875 0.40625 0  0.5 0.40625 0  0.53125 0.40625 0  0.5625 0.40625 0  0.59375 0.40625 0  0.625 0.40625 0  0.65625 0.40625 0  0.6875 0.40625 0  0.71875 0.40625 0  0.75 0.40625 0  0.78125 0.40625 0  0.8125 0.40625 0  0.84375 0.40625 0  0.875 0.40625 0  0.90625 0.40625 0  0.9375 0.40625 0  0.96875 0.40625 0  1 0.40625 0  0 0.4375 0  0.03125 0.4375 0  0.0625 0.4375 0  0.09375 0.4375 0  0.125 0.4375 0  0.15625 0.4375 0  0.1875 0.4375 0  0.21875 0.4375 0  0.25 0.4375 0  0.28125 0.4375 0  0.3125 0.4375 0  0.34375 0.4375 0  0.375 0.4375 0  0.40625 0.4375 0  0.4375 0.4375 0  0.46875 0.4375 0  0.5 0.4375 0  0.53125 0.4375 0  0.5625 0.4375 0  0.59375 0.4375 0  0.625 0.4375 0  0.65625 0.4375 0  0.6875 0.4375 0  0.71875 0.4375 0  0.75 0.4375 0  0.78125 0.4375 0  0.8125 0.4375 0  0.84375 0.4375 0  0.875 0.4375 0  0.90625 0.4375 0  0.9375 0.4375 0  0.96875 0.4375 0  1 0.4375 0  0 0.46875 0  0.03125 0.46875 0  0.0625 0.46875 0  0.09375 0.46875 0  0.125 0.46875 0  0.15625 0.46875 0  0.1875 0.46875 0  0.21875 0.46875 0  0.25 0.46875 0  0.28125 0.46875 0  0.3125 0.46875 0  0.34375 0.46875 0  0.375 0.46875 0  0.40625 0.46875 0  0.4375 0.46875 0  0.46875 0.46875 0  0.5 0.46875 0  0.53125 0.46875 0  0.5625 0.46875 0  0.59375 0.46875 0  0.625 0.46875 0  0.65625 0.46875 0  0.6875 0.46875 0  0.71875 0.46875 0  0.75 0.46875 0  0.78125 0.46875 0  0.8125 0.46875 0  0.84375 0.46875 0  0.875 0.46875 0  0.90625 0.46875 0  0.9375 0.46875 0  0.96875 0.46875 0  1 0.46875 0  0 0.5 0  0.03125 0.5 0  0.0625 0.5 0  0.09375 0.5 0  0.125 0.5 0  0.15625 0.5 0  0.1875 0.5 0  0.21875 0.5 0  0.25 0.5 0  0.28125 0.5 0  0.3125 0.5 0  0.34375 0.5 0  0.375 0.5 0  0.40625 0.5 0  0.4375 0.5 0  0.46875 0.5 0  0.5 0.5 0  0.53125 0.5 0  0.5625 0.5 0  0.59375 0.5 0  0.625 0.5 0  0.65625 0.5 0  0.6875 0.5 0  0.71875 0.5 0  0.75 0.5 0  0.78125 0.5 0  0.8125 0.5 0  0.84375 0.5 0  0.875 0.5 0  0.90625 0.5 0  0.9375 0.5 0  0.96875 0.5 0  1 0.5 0  0 0.53125 0  0.03125 0.53125 0  0.0625 0.53125 0  0.09375 0.53125 0  0.125 0.53125 0  0.15625 0.53125 0  0.1875 0.53125 0  0.21875 0.53125 0  0.25 0.53125 0  0.28125 0.53125 0  0.3125 0.53125 0  0.34375 0.53125 0  0.375 0.53125 0  0.40625 0.53125 0  0.4375 0.53125 0  0.46875 0.53125 0  0.5 0.53125 0  0.53125 0.53125 0  0.5625 0.53125 0  0.59375 0.53125 0  0.625 0.53125 0  0.65625 0.53125 0  0.6875 0.53125 0  0.71875 0.53125 0  0.75 0.53125 0  0.78125 0.531
[...]
<PointData  Scalars="ControlVisualisation"> 
<DataArray  type="Float64"  Name="ControlVisualisation"  format="ascii">6.2843517006855487e-01  6.1823769728932887e-01  6.2208388363457945e-01  6.0764194606744393e-01  5.8113560766438255e-01  5.4599666990883922e-01  5.1966720008349920e-01  5.0191732322065441e-01  4.8215434626678438e-01  4.6051541676601948e-01  4.3571623232889867e-01  4.1183726554386491e-01  3.9066125487054354e-01  3.7321686706336255e-01  3.6022893146231311e-01  3.5223988319372901e-01  3.4958864167991593e-01  3.5238838555537294e-01  3.6051855663239563e-01  3.7363332736422261e-01  3.9118420274723720e-01  4.1244075247812217e-01  4.3636174065119754e-01  4.6108070944366597e-01  4.8236818065630138e-01  5.0098531553173486e-01  5.1822279903707158e-01  5.4544268861907730e-01  5.8220833716116760e-01  6.0984810641964871e-01  6.2288396295551773e-01  6.1772211413738143e-01  6.2614605658229239e-01  6.2116432151814271e-01  6.4340397734613941e-01  6.1398016898543117e-01  6.0166425604869500e-01  5.7111008214322811e-01  5.5508435559344171e-01  5.2701065827685045e-01  4.9604567596568211e-01  4.8245652462145305e-01  4.5780805837567273e-01  4.3473907169626602e-01  4.1121849383064296e-01  3.9013684301715362e-01  3.7269637086469898e-01  3.5970002058190637e-01  3.5169852621155384e-01  3.4903374190997111e-01  3.5182027051618603e-01  3.5993742301538922e-01  3.7303760200805469e-01  3.9056465238247889e-01  4.1170774328189708e-01  4.3522675574567643e-01  4.5820664652694182e-01  4.8207320645118895e-01  4.9586251807485782e-01  5.2539131094992975e-01  5.5394528135274834e-01  5.7282806257993191e-01  6.0353306942604490e-01  6.1537476667360114e-01  6.4109144001620744e-01  6.2056297382651826e-01  6.3349322472418668e-01  6.2214324459388215e-01  6.1008699728446070e-01  6.0268272949484802e-01  5.9696380896220436e-01  5.4898358686914772e-01  5.1600752528854210e-01  5.0886356885761286e-01  4.7460878629890829e-01  4.5614363665324242e-01  4.3240459450638918e-01  4.0903174665616199e-01  3.8765394718513124e-01  3.6991511149679251e-01  3.5667496574282603e-01  3.4850802400603986e-01  3.4577031411600007e-01  3.4858242069252832e-01  3.5681987949752092e-01  3.7012293342828712e-01  3.8791336038259544e-01  4.0932291166202239e-01  4.3266961993512487e-01  4.5613627194421491e-01  4.7457542380548556e-01  5.0690744956728551e-01  5.1583529769886505e-01  5.4901617805329839e-01  5.9593169785645439e-01  6.0417594264063723e-01  6.1189312930227013e-01  6.2334583791435116e-01  6.3380767658471182e-01  6.3284194502566216e-01  6.2415808483775848e-01  6.1636070949658750e-01  6.1556960711353226e-01  5.6509768756345213e-01  5.5280545797150593e-01  5.4095866241671808e-01  4.9018194149230121e-01  4.7681331687993200e-01  4.5223319322856587e-01  4.3002188851441542e-01  4.0657519773821743e-01  3.8492661926738830e-01  3.6690488278890571e-01  3.5342977743181392e-01  3.4510122926204678e-01  3.4229455271459280e-01  3.4513815203356007e-01  3.5350159155771310e-01  3.6700746484858804e-01  3.8505334421419224e-01  4.0671242109196704e-01  4.3011512700482296e-01  4.5211047586265019e-01  4.7591278745026927e-01  4.9033168621359818e-01  5.3789688853868545e-01  5.5226272552243783e-01  5.6740970438546401e-01  6.1476840125411791e-01  6.1774676523622141e-01  6.2556792717724041e-01  6.3435419217383060e-01  6.2514862044297848e-01  6.1185455060194094e-01  6.2857353467228327e-01  5.8384171637840121e-01  5.9590317722782338e-01  5.7736295389428571e-01  5.0749567489177982e-01  5.0428933724503100e-01  4.6981097957691992e-01  4.4870869371827415e-01  4.2659959453267532e-01  4.0269836505882101e-01  3.8046825518142069e-01  3.6192789409180504e-01  3.4803886694254621e-01  3.3943352791389925e-01  3.3651117741678027e-01  3.3940998524857807e-01  3.4799248064769456e-01  3.6185975410203303e-01  3.8037895505900204e-01  4.0258211902977359e-01  4.2641470911534529e-01  4.4830971740022729e-01  4.6900204403679974e-01  5.0227029054418471e-01  5.0836344555186730e-01  5.7410823192137750e-01  5.9504395799214216e-01  5.8596965260170153e-01  6.2753192964867988e-01  6.1329846605951566e-01  6.2591458136119360e-01  6.1069019789161083e-01  6.1737328615626219e-01  6.0461244316428864e-01  5.9740285586217134e-01  6.0547236245675795e-01  5.2765246479803418e-01  5.3183696770972499e-01  4.9132047723988553e-01  4.6501152458916134e-01  4.4699250997895101e-01  4.2710884653991033e-01  4.0480080928085360e-01  3.8386442854447189e-01  3.6634880028031941e-01  3.5320807118435638e-01  3.4507121394329521e-01  3.4233937961793964e-01  3.4515080924261071e-01  3.5336334846817896e-01  3.6657185168646167e-01  3.8414291851456578e-01  4.0511231028977840e-01  4.2738861184171878e-01  4.4709086519076574e-01  4.6479955588221594e-01  4.9083171723299085e-01  5.2975975865924785e-01  5.2977201055494094e-01  6.0316600125480613e-01  5.9734985971833965e-01  6.0508645696327312e-01  6.1647917519724016e-01  6.1035403948070999e-01  6.0639418789071298e-01  6.1191080508023832e-01  5.9591525960363978e-01  6.1098136796380242e-01  5.6366103704575587e-01  5.5909960504057377e-01  5.1608654197834980e-01  4.8469544684742366e-01  4.6066200151126274e-01  4.4452121540058392e-01  4.2592032646776939e-01  4.0450332598994193e-01  3.8419689195658402e-01  3.6712647957089256e-01  3.5427861010739320e-01  3.4631298063891325e-01  3.4365625002407391e-01  3.4645576780739451e-01  3.5455749100021045e-01  3.6752805992774751e-01  3.8470085593918751e-01  4.0507699193658636e-01  4.2648523288014528e-01  4.4490612240687744e-01  4.6077772284537905e-01  4.8473092882550861e-01  5.1595685500460498e-01  5.5754119491484511e-01  5.6595978829629279e-01  6.0897141019606327e-01  5.9645693519136622e-01  6.1078900028347705e-01  6.0538017178679149e-01  6.1138555967185715e-01  6.0487731420478696e-01  6.1426487057120338e-01  5.8694652043675877e-01  5.8906268448676946e-01  5.4480355118259138e-01  5.0987357933589694e-01  4.7984006053993639e-01  4.5652253977066071e-01  4.4113063328744656e-01  4.2311297035065309e-01  4.0190401826607564e-01  3.8160544537366337e-01  3.6445264729664512e-01  3.5149282446974184e-01  3.4343901711834462e-01  3.4075828592087087e-01  3.4361265596194041e-01  3.5183185932259881e-01  3.6494067914822909e-01  3.8221792942349880e-01  4.0260322192089226e-01  4.2381477478148011e-01  4.4165555453680433e-01  4.5676751498440726e-01  4.8007488199750736e-01  5.1017397871431402e-01  5.4513170576458647e-01  5.8863483062448285e-01  5.8816826362909747e-01  6.1301733000081571e-01  6.0497259676145798e-01  6.1056548685487166e-01  6.1652879799161597e-01  6.1652689853483955e-01  6.0563255453379372e-01  5.9954079201426713e-01  5.8076970318289989e-01  5.4158003383301845e-01  5.0676029684205925e-01  4.7629097212151994e-01  4.5234694652942498e-01  4.3689874784769533e-01  4.1862889447508583e-01  3.9681329687877409e-01  3.7576760155978034e-01  3.5787779111032642e-01  3.4429365724719452e-01  3.3581864897743191e-01  3.3298613530854027e-01  3.3598277875970350e-01  3.4461423736113306e-01  3.5833944211321150e-01  3.7634713728012675e-01  3.9747482515713711e-01  4.1929168849428550e-01  4.3738842250010818e-01  4.5255856347350953e-01  4.7648107080753088e-01  5.0709478653668782e-01  5.4211680632583037e-01  5.8156474703728300e-01  5.9956035428979693e-01  6.0609287902823494e-01  6.1605879761857041e-01  6.1631806202428685e-01  6.2211873490146685e-01  6.1832929916411050e-01  6.1325168030325183e-01  5.9999406110531905e-01  5.8406777348188821e-01  5.4339355583355775e-01  5.0671282188053746e-01  4.7413039768371351e-01  4.4840579792568158e-01  4.3168464534664419e-01  4.1197293039864219e-01  3.8845074306268118e-01  3.6568467440967667e-01  3.4624612064977012e-01  3.3142014856424545e-01  3.2212702428017842e-01  3.1898415045761436e-01  3.2221024507496920e-01  3.3158325487898488e-01  3.4648195309150270e-01  3.6598138841008876e-01  3.8878640617267013e-01  4.1228466208203751e-01  4.3182136553913619e-01  4.4827806884062704e-01  4.7398630772857431e-01  5.0672060870833280e-01  5.4367808380024685e-01  5.8471863640983401e-01  6.0039705736322169e-01  6.1335079582643304e-01  6.1834266773873681e-01  6.2197032174995370e-01  6.2476632680104949e-01  6.2220087112266520e-01  6.1621559897055855e-01  6.0388338210607040e-01  5.8758643906079644e-01  5.4498900228321734e-01  5.0626643839099517e-01  4.7184076379045642e-01  4.4459038536159068e-01  4.2681160598705820e-01  4.0588326072937714e-01  3.8089705614692632e-01  3.5664592189041378e-01  3.3586627382894313e-01  3.1996333992182252e-01  3.0996207029357237e-01  3.0655554908379834e-01  3.0999108472477721e-01  3.2002082068951537e-01  3.3595037246165016e-01  3.5675223229728648e-01  3.8101325099367983e-01  4.0596074070188842e-01  4.2672178806988187e-01  4.4425844256491126e-01  4.7149649931063919e-01  5.0607074634941573e-01  5.4506197664571987e-01  5.8804534054273494e-01  6.0417479166156396e-01  6.1637371230565796e-01  6.2217072586707789e-01  6.2465465409165111e-01  6.2664880593199535e-01  6.2425050497797496e-01  6.1857098424372281e-01  6.0599588054639419e-01  5.8929086079870219e-01  5.4505014004215124e-01  5.0485777054610959e-01  4.6917404498807880e-01  4.4097303695674234e-01  4.2265899799902557e-01  4.0103449969134081e-01  3.7509906887916061e-01  3.4983355728670801e-01  3.2811071129982639e-01  3.1143634368177875e-01  3.0092547996740532e-01  2.9733716510186131e-01  3.0094309919133594e-01  3.1147130952729735e-01  3.2816179492469466e-01  3.4989748054909597e-01  3.7516591802651533e-01  4.0106318017374754e-01  4.2253889259629590e-01  4.4063927806413311e-01  4.6882671939350951e-01  5.0463947225090389e-01  5.4506782084409744e-01  5.8964945503247146e-01  6.0622598194538058e-01  6.1869595669826416e-01  6.2423175438733725e-01  6.2655113000465501e-01  6.2825619266827726e-01  6.2587186885515367e-01  6.2013667354679503e-01  6.0729069103746680e-01  5.9021386812545862e-01  5.4465202113235389e-01  5.0330178187545294e-01  4.6665075150771484e-01  4.3774990659925189e-01  4.1908299128796550e-01  3.9695332738932915e-01  3.7027907022782613e-01  3.4419997752192444e-01  3.2170626592832546e-01  3.0439355017636732e-01  2.9345896677315947e-01  2.8972215722699834e-01  2.9347710617664258e-01  3.0442917909632733e-01  3.2175757535021982e-01  3.4426322885233496e-01  3.7034501433590467e-01  3.9698714320615441e-01  4.1899250901025631e-01  4.3748028642033121e-01  4.6636635544655519e-01  5.0312120606518584e-01  5.4466427703748099e-01  5.9050720270903245e-01  6.0747818019745170e-01  6.2023926346972025e-01  6.2585590974359595e-01  6.2817524639256062e-01  6.2962225752565504e-01  6.2719134656828013e-01  6.2138328534588827e-01  6.0829428785687500e-01  5.9091405462963542e-01  5.4427964196249967e-01  5.0198995485515308e-01  4.6455213810070761e-01  4.3507892321357389e-01  4.1611320545848834e-01  3.9355257244140790e-01  3.6625077022078700e-01  3.3947836014658600e-01  3.1632439703500059e-01  2.9846255437464475e-01  2.8716221566441419e-01  2.8329657418519066e-01  2.8717938976311463e-01  2.9849607284227803e-01  3.1637225384881484e-01  3.3953688023466744e-01  3.6631200853957269e-01  3.9358906710293029e-01  4.1605355038157454e-01  4.3488013621585098e-01  4.6433970136042191e-01  5.0185522318942100e-01  5.4429121190947605e-01  5.9114038621692455e-01  6.0843892885308248e-01  6.2146212505814546e-01  6.2717898701731156e-01  6.2955958707962756e-01  6.3066101389545759e-01  6.2819287192686868e-01  6.2232728708299889e-01  6.0905660992353006e-01  5.9144782408112384e-01  5.4400947632907859e-01  5.0101481522786295e-01  4.6298428824261012e-01  4.3307667792922827e-01  4.1387677639541776e-01  3.9097862781258486e-01  3.6318899665802501e-01  3.3587744555845456e-01  3.1220879082156028e-01  2.9391771973966180e-01  2.8233051273970244e-01  2.7836268404371034e-01  2.8234371810433573e-01  2.9394340632970906e-01  3.1224529762956676e-01  3.3592189021141644e-01  3.6323558840006692e-01  3.9100843159184523e-01  4.1384117897393080e-01  4.3294618556598391e-01  4.6284343591856397e-01  5.0092551763482485e-01  5.4401823720193532e-01  5.9160126441594063e-01  6.0915446800451456e-01  6.2238026615430331e-01  6.2818389138997421e-01  6.3061780300814385e-01  6.3130482365708174e-01  6.2881654614559179e-01  6.2292015547515167e-01  6.0954044540794894e-01  5.9179378374036462e-01  5.4384764927846430e-01  5.0040946542233622e-01  4.6200733206661804e-01  4.3182953229552296e-01  4.1248736351490584e-01  3.8937909181307256e-01  3.6128155811727236e-01  3.3362808298757052e-01  3.0963198748417131e-01  2.9106697578313129e-01  2.7929580013410937e-01  2.7526118456823073e-01  2.7930280714507538e-01  2.9108058481061999e-01  3.0965128637918493e-01  3.3365152069255499e-01  3.6130611790371076e-01  3.8939518231530817e-01  4.1247052924302358e-01  4.3176486279865495e-01  4.6193707966742981e-01  5.0036467611105240e-01  5.4385164389012763e-01  5.9187001087157920e-01  6.0958863332692137e-01  6.2294567397850997e-01  6.2881088012244712e-01  6.3128191901587727e-01  6.3151362080407936e-01  6.2902437812200163e-01  6.2312802983365700e-01  6.0971936829969275e-01  5.9193576631674660e-01  5.4379571115470182e-01  5.0019292381223102e-01  4.6165789343279184e-01  4.3139133608686281e-01  4.1201688484147980e-01  3.8884830241838070e-01  3.6064933476605604e-01  3.3287963593669656e-01  3.0877106184484510e-01  2.9011105261799480e-01  2.7827500255952115e-01  2.7421509861732740e-01  2.7827465625390380e-01  2.9011038715530918e-01  3.0877012609881943e-01  3.3287849190858909e-01  3.6064805974274361e-01  3.8884706211336478e-01  4.1201605898290289e-01  4.3139114005276086e-01  4.6165764339460136e-01  5.0019209183195812e-01  5.4379390131930050e-01  5.9193259728673708e-01  6.0971643414623056e-01  6.2312529784701809e-01  6.2902201487752207e-01  6.3151147104358429e-01  6.3127437771891504e-01  6.2880375649038711e-01  6.2293943703825216e-01  6.0958417966133582e-01  5.9186778074843427e-01  5.4385394159115141e-01  5.0037145599116317e-01  4.6194811380729234e-01  4.3177977884080948e-01  4.1248869666071691e-01  3.8941695188153808e-01  3.6133199090517754e-01  3.3368156883113115e-01  3.0968515104823929e-01  2.9111749056570280e-01  2.7934158572172785e-01  2.7530038745321456e-01  2.7933389337916253e-01  2.9110256414964042e-01  3.0966399895112223e-01  3.3365586364762662e-01  3.6130490173228130e-01  3.8939839757672939e-01  4.1250388520948172e-01  4.3184404876548482e-01  4.6201785848804339e-01  5.0041458296364094e-01  5.4384634436584489e-01  5.9178525405278803e-01  6.0953015113864706e-01  6.2290847467956789e-01  6.2880470378862019e-01  6.3129298413488155e-01  6.3060065848278113e-01  6.2816735005179414e-01  6.2236510003630330e-01  6.0914260569506096e-01  5.9159353929125857e-01  5.4402076723547343e-01  5.0093783420622762e-01  4.6286469237995742e-01  4.3297511769206332e-01  4.1387584592177618e-01  3.9104971088032775e-01  3.6328481534010815e-01  3.3597934566926990e-01  3.1231034216344022e-01  2.9401458532794544e-01  2.8241881515852763e-01  2.7843892792756619e-01  2.8240494440756803e-01  2.9398761885951019e-01  3.1227203236534168e-01  3.3593269072870169e-01  3.6323575115360318e-01  3.9101748941379499e-01  4.1390981244188629e-01  4.3310518530698161e-01  4.6300501301986102e-01  5.0102547218913684e-01  5.4400845385635721e-01  5.9143391187824712e-01  6.0903898915148535e-01  6.2230673573111617e-01  6.2817163523157626e-01  6.3063957498290080e-01  6.2953299623463577e-01  6.2715315794648974e-01  6.2143811702154572e-01  6.0841964021154693e-01  5.9112701808426538e-01  5.4429349979984454e-01  5.0187228933839023e-01  4.6437010041034954e-01  4.3492173981320531e-01  4.1610313504691232e-01  3.9364796312523687e-01  3.6638229096843494e-01  3.3961898569166232e-01  3.1646525977899942e-01  2.9859790761928079e-01  2.8728691550493890e-01  2.8340587498261433e-01  2.8726910383175519e-01  2.9856316142189804e-01  3.1641567043268587e-01  3.3955833535450963e-01  3.6631866032558252e-01  3.9360911405621613e-01  4.1616117327702123e-01  4.3512005347321570e-01  4.6458196029402632e-01  5.0200536171417032e-01  5.4427845497869975e-01  5.9089467977379073e-01  6.0826937190748076e-01  6.2135398653767182e-01  6.2716085958729806e-01  6.2959137883436134e-01  6.2813939792627982e-01  6.2582095630822210e-01  6.2020653481572363e-01  6.0745144865524869e-01  5.9048800635047216e-01  5.4466566860395493e-01  5.0314192417986747e-01  4.6640439421892266e-01  4.3753270410771916e-01  4.1905485977621360e-01  3.9706111400404948e-01  3.7043329407022280e-01  3.4436633814751183e-01  3.2187430847212134e-01  3.0455692532171297e-01  2.9361196824724484e-01  2.8985929875705030e-01  2.9359322031066626e-01  3.0452012367363468e-01  3.2182134080169822e-01  3.4430104196061656e-01  3.7036504265575049e-01  3.9702500844376470e-01  4.1914372646150477e-01  4.3780177177256269e-01  4.6668814283272669e-01  5.0332083372396941e-01  5.4465003733368911e-01  5.9018890336289487e-01  6.0725850639353085e-01  6.2009877980715344e-01  6.2583230788427469e-01  6.2821606550768250e-01  6.2650620468652463e-01  6.2418791148886643e-01  6.1865473237172097e-01  6.0619189747317004e-01  5.8962431727186360e-01  5.4506760431475454e-01  5.0466256810254784e-01  4.6887061615719444e-01  4.4070029730653004e-01  4.2261146500930086e-01  4.0114925063997425e-01  3.7526864625864276e-01  3.5001739981417546e-01  3.2829742006578805e-01  3.1161958210640206e-01  3.0109953755312441e-01  2.9749625420857673e-01  3.0108133798285819e-01  3.1158349705198657e-01  3.2824475210264775e-01  3.4995151770974098e-01  3.7519957798823178e-01  4.0111834700809340e-01  4.2272994983211276e-01  4.4103340639851896e-01  4.6921721302287411e-01  5.0487919973940310e-01  5.4504667936874218e-01  5.8926025516280600e-01  6.0595656686661681e-01  6.1852475619519709e-01  6.2420212360405247e-01  6.2659961471624492e-01  6.2460093925199023e-01  6.2211845154020429e-01  6.1632482998415428e-01  6.0413409846017130e-01  5.8801479839966686e-01  5.4505987259198252e-01  5.0609514970185443e-01  4.7154445202682549e-01  4.4432561648597196e-01  4.2680163164295509e-01  4.0605536707354895e-01  3.8112616100386421e-01  3.5688392284026538e-01  3.3609911933026881e-01  3.2018324045702523e-01  3.1016231917338083e-01  3.0672967194266249e-01  3.1013277630268116e-01  3.2012474085490605e-01  3.3601357760720035e-01  3.5677582620856929e-01  3.8100793640828212e-01  4.0597584259387171e-01  4.2688993600723513e-01  4.4465692086305181e-01  4.7188802208511382e-01  5.0628930246868431e-01  5.4498392767053194e-01  5.8755088980392356e-01  6.0383780737678405e-01  6.1616197540601281e-01  6.2214415564970638e-01  6.2470837881421970e-01  6.2190873877437547e-01  6.1828405762920124e-01  6.1329499368169560e-01  6.0035161253527192e-01  5.8468441293499684e-01  5.4367490119020490e-01  5.0674593202873619e-01  4.7403677198582073e-01  4.4834877477609775e-01  4.3190493876628344e-01  4.1238331022723873e-01  3.8890385986127551e-01  3.6611811052535065e-01  3.4663608429536685e-01  3.3175129144609766e-01  3.2238724405641039e-01  3.1916413170818908e-01  3.2230363678328877e-01  3.3158744079080643e-01  3.4639919908897077e-01  3.6582009302081836e-01  3.8856671522407032e-01  4.1207010346555417e-01  4.3176722073838680e-01  4.4847629020113033e-01  4.7418062158506924e-01  5.0673715257364682e-01  5.4338809384739151e-01  5.8402935467690276e-01  5.9994437056168470e-01  6.1319136983429634e-01  6.1826659580705912e-01  6.2205300291343779e-01  6.1625212828752507e-01  6.1599178638382934e-01  6.0603531331895988e-01  5.9950631780951280e-01  5.8152624311035550e-01  5.4211188603468563e-01  5.0711997335109904e-01  4.7653221656644218e-01  4.5263031049006808e-01  4.3747275166962935e-01  4.1939079439411747e-01  3.9759250468080337e-01  3.7648375291709429e-01  3.5849303890033329e-01  3.4478132475466949e-01  3.3615855606099709e-01  3.3316485979132993e-01  3.3599423899774256e-01  3.4446038582399496e-01  3.5803088250033227e-01  3.7590359207673013e-01  3.9693026646591328e-01  4.1872733866047812e-01  4.3698284897486112e-01  4.5241916724635362e-01  4.7634259901470516e-01  5.0678530732339278e-01  5.4157367196235295e-01  5.8072786120228903e-01  5.9948227249169062e-01  6.0557170453286546e-01  6.1645535905457005e-01  6.1645906417431939e-01  6.1049507489436983e-01  6.0490814775153989e-01  6.1294033536925208e-01  5.881188688