<?xml version="1.0"?>
<VTKFile type="UnstructuredGrid"  version="0.1"  >
<UnstructuredGrid>
<Piece  NumberOfPoints="1089" NumberOfCells="2048">
<Points>
<DataArray  type="Float64"  NumberOfComponents="3"  format="ascii">0 0 0  0.03125 0 0  0.0625 0 0  0.09375 0 0  0.125 0 0  0.15625 0 0  0.1875 0 0  0.21875 0 0  0.25 0 0  0.28125 0 0  0.3125 0 0  0.34375 0 0  0.375 0 0  0.40625 0 0  0.4375 0 0  0.46875 0 0  0.5 0 0  0.53125 0 0  0.5625 0 0  0.59375 0 0  0.625 0 0  0.65625 0 0  0.6875 0 0  0.71875 0 0  0.75 0 0  0.78125 0 0  0.8125 0 0  0.84375 0 0  0.875 0 0  0.90625 0 0  0.9375 0 0  0.96875 0 0  1 0 0  0 0.03125 0  0.03125 0.03125 0  0.0625 0.03125 0  0.09375 0.03125 0  0.125 0.03125 0  0.15625 0.03125 0  0.1875 0.03125 0  0.21875 0.03125 0  0.25 0.03125 0  0.28125 0.03125 0  0.3125 0.03125 0  0.34375 0.03125 0  0.375 0.03125 0  0.40625 0.03125 0  0.4375 0.03125 0  0.46875 0.03125 0  0.5 0.03125 0  0.53125 0.03125 0  0.5625 0.03125 0  0.59375 0.03125 0  0.625 0.03125 0  0.65625 0.03125 0  0.6875 0.03125 0  0.71875 0.03125 0  0.75 0.03125 0  0.78125 0.03125 0  0.8125 0.03125 0  0.84375 0.03125 0  0.875 0.03125 0  0.90625 0.03125 0  0.9375 0.03125 0  0.96875 0.03125 0  1 0.03125 0  0 0.0625 0  0.03125 0.0625 0  0.0625 0.0625 0  0.09375 0.0625 0  0.125 0.0625 0  0.15625 0.0625 0  0.1875 0.0625 0  0.21875 0.0625 0  0.25 0.0625 0  0.28125 0.0625 0  0.3125 0.0625 0  0.34375 0.0625 0  0.375 0.0625 0  0.40625 0.0625 0  0.4375 0.0625 0  0.46875 0.0625 0  0.5 0.0625 0  0.53125 0.0625 0  0.5625 0.0625 0  0.59375 0.0625 0  0.625 0.0625 0  0.65625 0.0625 0  0.6875 0.0625 0  0.71875 0.0625 0  0.75 0.0625 0  0.78125 0.0625 0  0.8125 0.0625 0  0.84375 0.0625 0  0.875 0.0625 0  0.90625 0.0625 0  0.9375 0.0625 0  0.96875 0.0625 0  1 0.0625 0  0 0.09375 0  0.03125 0.09375 0  0.0625 0.09375 0  0.09375 0.09375 0  0.125 0.09375 0  0.15625 0.09375 0  0.1875 0.09375 0  0.21875 0.09375 0  0.25 0.09375 0  0.28125 0.09375 0  0.3125 0.09375 0  0.34375 0.09375 0  0.375 0.09375 0  0.40625 0.09375 0  0.4375 0.09375 0  0.46875 0.09375 0  0.5 0.09375 0  0.53125 0.09375 0  0.5625 0.09375 0  0.59375 0.09375 0  0.625 0.09375 0  0.65625 0.09375 0  0.6875 0.09375 0  0.71875 0.09375 0  0.75 0.09375 0  0.78125 0.09375 0  0.8125 0.09375 0  0.84375 0.09375 0  0.875 0.09375 0  0.90625 0.09375 0  0.9375 0.09375 0  0.96875 0.09375 0  1 0.09375 0  0 0.125 0  0.03125 0.125 0  0.0625 0.125 0  0.09375 0.125 0  0.125 0.125 0  0.15625 0.125 0  0.1875 0.125 0  0.21875 0.125 0  0.25 0.125 0  0.28125 0.125 0  0.3125 0.125 0  0.34375 0.125 0  0.375 0.125 0  0.40625 0.125 0  0.4375 0.125 0  0.46875 0.125 0  0.5 0.125 0  0.53125 0.125 0  0.5625 0.125 0  0.59375 0.125 0  0.625 0.125 0  0.65625 0.125 0  0.6875 0.125 0  0.71875 0.125 0  0.75 0.125 0  0.78125 0.125 0  0.8125 0.125 0  0.84375 0.125 0  0.875 0.125 0  0.90625 0.125 0  0.9375 0.125 0  0.96875 0.125 0  1 0.125 0  0 0.15625 0  0.03125 0.15625 0  0.0625 0.15625 0  0.09375 0.15625 0  0.125 0.15625 0  0.15625 0.15625 0  0.1875 0.15625 0  0.21875 0.15625 0  0.25 0.15625 0  0.28125 0.15625 0  0.3125 0.15625 0  0.34375 0.15625 0  0.375 0.15625 0  0.40625 0.15625 0  0.4375 0.15625 0  0.46875 0.15625 0  0.5 0.15625 0  0.53125 0.15625 0  0.5625 0.15625 0  0.59375 0.15625 0  0.625 0.15625 0  0.65625 0.15625 0  0.6875 0.15625 0  0.71875 0.15625 0  0.75 0.15625 0  0.78125 0.15625 0  0.8125 0.15625 0  0.84375 0.15625 0  0.875 0.15625 0  0.90625 0.15625 0  0.9375 0.15625 0  0.96875 0.15625 0  1 0.15625 0  0 0.1875 0  0.03125 0.1875 0  0.0625 0.1875 0  0.09375 0.1875 0  0.125 0.1875 0  0.15625 0.1875 0  0.1875 0.1875 0  0.21875 0.1875 0  0.25 0.1875 0  0.28125 0.1875 0  0.3125 0.1875 0  0.34375 0.1875 0  0.375 0.1875 0  0.40625 0.1875 0  0.4375 0.1875 0  0.46875 0.1875 0  0.5 0.1875 0  0.53125 0.1875 0  0.5625 0.1875 0  0.59375 0.1875 0  0.625 0.1875 0  0.65625 0.1875 0  0.6875 0.1875 0  0.71875 0.1875 0  0.75 0.1875 0  0.78125 0.1875 0  0.8125 0.1875 0  0.84375 0.1875 0  0.875 0.1875 0  0.90625 0.1875 0  0.9375 0.1875 0  0.96875 0.1875 0  1 0.1875 0  0 0.21875 0  0.03125 0.21875 0  0.0625 0.21875 0  0.09375 0.21875 0  0.125 0.21875 0  0.15625 0.21875 0  0.1875 0.21875 0  0.21875 0.21875 0  0.25 0.21875 0  0.28125 0.21875 0  0.3125 0.21875 0  0.34375 0.21875 0  0.375 0.21875 0  0.40625 0.21875 0  0.4375 0.21875 0  0.46875 0.21875 0  0.5 0.21875 0  0.53125 0.21875 0  0.5625 0.21875 0  0.59375 0.21875 0  0.625 0.21875 0  0.65625 0.21875 0  0.6875 0.21875 0  0.71875 0.21875 0  0.75 0.21875 0  0.78125 0.21875 0  0.8125 0.21875 0  0.84375 0.21875 0  0.875 0.21875 0  0.90625 0.21875 0  0.9375 0.21875 0  0.96875 0.21875 0  1 0.21875 0  0 0.25 0  0.03125 0.25 0  0.0625 0.25 0  0.09375 0.25 0  0.125 0.25 0  0.15625 0.25 0  0.1875 0.25 0  0.21875 0.25 0  0.25 0.25 0  0.28125 0.25 0  0.3125 0.25 0  0.34375 0.25 0  0.375 0.25 0  0.40625 0.25 0  0.4375 0.25 0  0.46875 0.25 0  0.5 0.25 0  0.53125 0.25 0  0.5625 0.25 0  0.59375 0.25 0  0.625 0.25 0  0.65625 0.25 0  0.6875 0.25 0  0.71875 0.25 0  0.75 0.25 0  0.78125 0.25 0  0.8125 0.25 0  0.84375 0.25 0  0.875 0.25 0  0.90625 0.25 0  0.9375 0.25 0  0.96875 0.25 0  1 0.25 0  0 0.28125 0  0.03125 0.28125 0  0.0625 0.28125 0  0.09375 0.28125 0  0.125 0.28125 0  0.15625 0.28125 0  0.1875 0.28125 0  0.21875 0.28125 0  0.25 0.28125 0  0.28125 0.28125 0  0.3125 0.28125 0  0.34375 0.28125 0  0.375 0.28125 0  0.40625 0.28125 0  0.4375 0.28125 0  0.46875 0.28125 0  0.5 0.28125 0  0.53125 0.28125 0  0.5625 0.28125 0  0.59375 0.28125 0  0.625 0.28125 0  0.65625 0.28125 0  0.6875 0.28125 0  0.71875 0.28125 0  0.75 0.28125 0  0.78125 0.28125 0  0.8125 0.28125 0  0.84375 0.28125 0  0.875 0.28125 0  0.90625 0.28125 0  0.9375 0.28125 0  0.96875 0.28125 0  1 0.28125 0  0 0.3125 0  0.03125 0.3125 0  0.0625 0.3125 0  0.09375 0.3125 0  0.125 0.3125 0  0.15625 0.3125 0  0.1875 0.3125 0  0.21875 0.3125 0  0.25 0.3125 0  0.28125 0.3125 0  0.3125 0.3125 0  0.34375 0.3125 0  0.375 0.3125 0  0.40625 0.3125 0  0.4375 0.3125 0  0.46875 0.3125 0  0.5 0.3125 0  0.53125 0.3125 0  0.5625 0.3125 0  0.59375 0.3125 0  0.625 0.3125 0  0.65625 0.3125 0  0.6875 0.3125 0  0.71875 0.3125 0  0.75 0.3125 0  0.78125 0.3125 0  0.8125 0.3125 0  0.84375 0.3125 0  0.875 0.3125 0  0.90625 0.3125 0  0.9375 0.3125 0  0.96875 0.3125 0  1 0.3125 0  0 0.34375 0  0.03125 0.34375 0  0.0625 0.34375 0  0.09375 0.34375 0  0.125 0.34375 0  0.15625 0.34375 0  0.1875 0.34375 0  0.21875 0.34375 0  0.25 0.34375 0  0.28125 0.34375 0  0.3125 0.34375 0  0.34375 0.34375 0  0.375 0.34375 0  0.40625 0.34375 0  0.4375 0.34375 0  0.46875 0.34375 0  0.5 0.34375 0  0.53125 0.34375 0  0.5625 0.34375 0  0.59375 0.34375 0  0.625 0.34375 0  0.65625 0.34375 0  0.6875 0.34375 0  0.71875 0.34375 0  0.75 0.34375 0  0.78125 0.34375 0  0.8125 0.34375 0  0.84375 0.34375 0  0.875 0.34375 0  0.90625 0.34375 0  0.9375 0.34375 0  0.96875 0.34375 0  1 0.34375 0  0 0.375 0  0.03125 0.375 0  0.0625 0.375 0  0.09375 0.375 0  0.125 0.375 0  0.15625 0.375 0  0.1875 0.375 0  0.21875 0.375 0  0.25 0.375 0  0.28125 0.375 0  0.3125 0.375 0  0.34375 0.375 0  0.375 0.375 0  0.40625 0.375 0  0.4375 0.375 0  0.46875 0.375 0  0.5 0.375 0  0.53125 0.375 0  0.5625 0.375 0  0.59375 0.375 0  0.625 0.375 0  0.65625 0.375 0  0.6875 0.375 0  0.71875 0.375 0  0.75 0.375 0  0.78125 0.375 0  0.8125 0.375 0  0.84375 0.375 0  0.875 0.375 0  0.90625 0.375 0  0.9375 0.375 0  0.96875 0.375 0  1 0.375 0  0 0.40625 0  0.03125 0.40625 0  0.0625 0.40625 0  0.09375 0.40625 0  0.125 0.40625 0  0.15625 0.40625 0  0.1875 0.40625 0  0.21875 0.40625 0  0.25 0.40625 0  0.28125 0.40625 0  0.3125 0.40625 0  0.34375 0.40625 0  0.375 0.40625 0  0.40625 0.40625 0  0.4375 0.40625 0  0.46875 0.40625 0  0.5 0.40625 0  0.53125 0.40625 0  0.5625 0.40625 0  0.59375 0.40625 0  0.625 0.40625 0  0.65625 0.40625 0  0.6875 0.40625 0  0.71875 0.40625 0  0.75 0.40625 0  0.78125 0.40625 0  0.8125 0.40625 0  0.84375 0.40625 0  0.875 0.40625 0  0.90625 0.40625 0  0.9375 0.40625 0  0.96875 0.40625 0  1 0.40625 0  0 0.4375 0  0.03125 0.4375 0  0.0625 0.4375 0  0.09375 0.4375 0  0.125 0.4375 0  0.15625 0.4375 0  0.1875 0.4375 0  0.21875 0.4375 0  0.25 0.4375 0  0.28125 0.4375 0  0.3125 0.4375 0  0.34375 0.4375 0  0.375 0.4375 0  0.40625 0.4375 0  0.4375 0.4375 0  0.46875 0.4375 0  0.5 0.4375 0  0.53125 0.4375 0  0.5625 0.4375 0  0.59375 0.4375 0  0.625 0.4375 0  0.65625 0.4375 0  0.6875 0.4375 0  0.71875 0.4375 0  0.75 0.4375 0  0.78125 0.4375 0  0.8125 0.4375 0  0.84375 0.4375 0  0.875 0.4375 0  0.90625 0.4375 0  0.9375 0.4375 0  0.96875 0.4375 0  1 0.4375 0  0 0.46875 0  0.03125 0.46875 0  0.0625 0.46875 0  0.09375 0.46875 0  0.125 0.46875 0  0.15625 0.46875 0  0.1875 0.46875 0  0.21875 0.46875 0  0.25 0.46875 0  0.28125 0.46875 0  0.3125 0.46875 0  0.34375 0.46875 0  0.375 0.46875 0  0.40625 0.46875 0  0.4375 0.46875 0  0.46875 0.46875 0  0.5 0.46875 0  0.53125 0.46875 0  0.5625 0.46875 0  0.59375 0.46875 0  0.625 0.46875 0  0.65625 0.46875 0  0.6875 0.46875 0  0.71875 0.46875 0  0.75 0.46875 0  0.78125 0.46875 0  0.8125 0.46875 0  0.84375 0.46875 0  0.875 0.46875 0  0.90625 0.46875 0  0.9375 0.46875 0  0.96875 0.46875 0  1 0.46875 0  0 0.5 0  0.03125 0.5 0  0.0625 0.5 0  0.09375 0.5 0  0.125 0.5 0  0.15625 0.5 0  0.1875 0.5 0  0.21875 0.5 0  0.25 0.5 0  0.28125 0.5 0  0.3125 0.5 0  0.34375 0.5 0  0.375 0.5 0  0.40625 0.5 0  0.4375 0.5 0  0.46875 0.5 0  0.5 0.5 0  0.53125 0.5 0  0.5625 0.5 0  0.59375 0.5 0  0.625 0.5 0  0.65625 0.5 0  0.6875 0.5 0  0.71875 0.5 0  0.75 0.5 0  0.78125 0.5 0  0.8125 0.5 0  0.84375 0.5 0  0.875 0.5 0  0.90625 0.5 0  0.9375 0.5 0  0.96875 0.5 0  1 0.5 0  0 0.53125 0  0.03125 0.53125 0  0.0625 0.53125 0  0.09375 0.53125 0  0.125 0.53125 0  0.15625 0.53125 0  0.1875 0.53125 0  0.21875 0.53125 0  0.25 0.53125 0  0.28125 0.53125 0  0.3125 0.53125 0  0.34375 0.53125 0  0.375 0.53125 0  0.40625 0.53125 0  0.4375 0.53125 0  0.46875 0.53125 0  0.5 0.53125 0  0.53125 0.53125 0  0.5625 0.53125 0  0.59375 0.53125 0  0.625 0.53125 0  0.65625 0.53125 0  0.6875 0.53125 0  0.71875 0.53125 0  0.75 0.53125 0  0.78125 0.531
[...]
<PointData  Scalars="ControlVisualisation"> 
<DataArray  type="Float64"  Name="ControlVisualisation"  format="ascii">4.8510828932500988e-01  4.8777600343112143e-01  4.7860642469720788e-01  4.7129352898657800e-01  4.5027945763452010e-01  4.3294407713985039e-01  4.1836170900734265e-01  3.9785946036530662e-01  3.8034833394044482e-01  3.6303015926970444e-01  3.4494378246166435e-01  3.3406394384743188e-01  3.2129449777094432e-01  3.1119868497592051e-01  3.0780884447542856e-01  2.9847696031012322e-01  2.9937009027183120e-01  3.0111759033171454e-01  3.1279798838235429e-01  3.1832970803515648e-01  3.3292617709551137e-01  3.4612738571516799e-01  3.5987737440361156e-01  3.7888851109703126e-01  4.0058499654473806e-01  4.1581558180206807e-01  4.3538229390984257e-01  4.5040855527128082e-01  4.6408748745890532e-01  4.8504040037797974e-01  4.9376932148181596e-01  5.0062622047514627e-01  4.9944320462905001e-01  4.9106625429993189e-01  4.8856471503983312e-01  4.6838256759183272e-01  4.7512334183930044e-01  4.5865985268617859e-01  4.4147583381713712e-01  4.2041158542194457e-01  3.9921825564336566e-01  3.8570947765054714e-01  3.5727479401075452e-01  3.4576386789765678e-01  3.2501771799950779e-01  3.0964446045440552e-01  3.0776258777561866e-01  2.8629626008139036e-01  2.9587482266427867e-01  2.8249503353062694e-01  2.9949045403881108e-01  2.9285142542824227e-01  3.1804960756358652e-01  3.1795298856908127e-01  3.3948933465987502e-01  3.4918419789747634e-01  3.7071956260749006e-01  3.9349139558848090e-01  4.1300748019370515e-01  4.3787313846137671e-01  4.5287153857381746e-01  4.6844584551204660e-01  4.8330914116050394e-01  4.8171739805182340e-01  5.0031049441132203e-01  5.0230542951034263e-01  4.8021457627645281e-01  4.8274441306538635e-01  4.8603656336809337e-01  4.5243269080192172e-01  4.5445664759044974e-01  4.3194054831074280e-01  4.1517258586232836e-01  3.9250233185321359e-01  3.6953414812343610e-01  3.5939113334910860e-01  3.2906482561436545e-01  3.1306738903592546e-01  3.1137171802401120e-01  2.8162272269510630e-01  2.9232384060361866e-01  2.7359864303404796e-01  2.8815016707744368e-01  2.7831221351107560e-01  3.0048463065687164e-01  2.9427409523762083e-01  3.2633706104065369e-01  3.2489448931146730e-01  3.4705626892462954e-01  3.6473158737821654e-01  3.8371270413609215e-01  4.0092139611801580e-01  4.2830593342374851e-01  4.4814978532383076e-01  4.6258492069035545e-01  4.6345164021045893e-01  4.9008466146887414e-01  4.8801328587162551e-01  4.9645271429935972e-01  4.7800441144411204e-01  4.9202483833827804e-01  4.6413306860039050e-01  4.4612011233433779e-01  4.3944638529651364e-01  4.2261762935041425e-01  4.0502255371884449e-01  3.8075409604913840e-01  3.5948647836007924e-01  3.4244931043462251e-01  3.1198528189772573e-01  3.0484928173139464e-01  2.8334846231220157e-01  2.8182962608474260e-01  2.5825314794854498e-01  2.6381643757647572e-01  2.6282957511021887e-01  2.6641071600504784e-01  2.6756146618161958e-01  2.9138749891446225e-01  2.9976594409697693e-01  3.2123006457885456e-01  3.3394345681499149e-01  3.6550995446128459e-01  3.7559573498132071e-01  3.9885919094840017e-01  4.1783573273446245e-01  4.3528852475804103e-01  4.5695078870184652e-01  4.5352334308215680e-01  4.6773712321791994e-01  4.9504822696298090e-01  4.8997630540696435e-01  4.6689735425884715e-01  4.8114312883485288e-01  4.6722096002922164e-01  4.5259997870505170e-01  4.3891756567089124e-01  4.1639955065459194e-01  4.0273651864005033e-01  3.5907076816869632e-01  3.5331638625072753e-01  3.3095810750234889e-01  3.0895647355517936e-01  2.8683515536920834e-01  2.8842574398594018e-01  2.5651641642276618e-01  2.5329077851280807e-01  2.5179732419468048e-01  2.4777652652162116e-01  2.5310042261535898e-01  2.5525358126201647e-01  2.6460398422503484e-01  2.9242169364468601e-01  2.9880153238596741e-01  3.2177353775746187e-01  3.5241867171313468e-01  3.7029694292101339e-01  3.7932490987432410e-01  4.1329336490111634e-01  4.2312413796350695e-01  4.5364007442584076e-01  4.6285480791167039e-01  4.6944920428286280e-01  4.8692775137906980e-01  4.7460210234860961e-01  4.5857174008643420e-01  4.7491271491896780e-01  4.5327409101581106e-01  4.4103968394415788e-01  4.2695307794330928e-01  4.0953069590506558e-01  3.8088520303779144e-01  3.6283956314315008e-01  3.4465733438510110e-01  3.3618485844145801e-01  2.9094950474652176e-01  2.8559839849476837e-01  2.6972508507607629e-01  2.5611811586331068e-01  2.4635020460433515e-01  2.4338257955478204e-01  2.5284734848040108e-01  2.4518075541489043e-01  2.4547745135731019e-01  2.5960723542486591e-01  2.7219428181968347e-01  2.8643673725654578e-01  2.9927557293712614e-01  3.4462539770173023e-01  3.5891813432489877e-01  3.7975981077961618e-01  3.9508097632754535e-01  4.0264845994110088e-01  4.3399393410978665e-01  4.5003117415924976e-01  4.5907881822252700e-01  4.7477637755124319e-01  4.6723736091247398e-01  4.5433324475833187e-01  4.6303040399192663e-01  4.4394517427711749e-01  4.3343419008156048e-01  4.2860670483593216e-01  3.8661639039601570e-01  3.8077160364995938e-01  3.3700340970879311e-01  3.3222787732483550e-01  3.0948501021194330e-01  2.6898100919106532e-01  2.6338222225607261e-01  2.5830721552461278e-01  2.3602143468663864e-01  2.3251626024587152e-01  2.3473451049222296e-01  2.3855499387996693e-01  2.3284633129587981e-01  2.4104492998816021e-01  2.3576390463867739e-01  2.6512891348739592e-01  2.6471755627737531e-01  2.7753652320291999e-01  3.1533486970520841e-01  3.4225703953225989e-01  3.6207953612404303e-01  4.0493918898872450e-01  3.9432446111057617e-01  4.2809119443065496e-01  4.4585460832556412e-01  4.4940755678184635e-01  4.6861113677888744e-01  4.5596260585265380e-01  4.4205181729441761e-01  4.5797366891616487e-01  4.2634181825738537e-01  4.3504213920787560e-01  3.9388718125843036e-01  3.8052698161060078e-01  3.5314804847354481e-01  3.1686897349291654e-01  3.2074234621796199e-01  2.9374452051335953e-01  2.4652232848918976e-01  2.5167284198250661e-01  2.3341204730735171e-01  2.2685425503995224e-01  2.1152131688887310e-01  2.2781119137119965e-01  2.1782977454584276e-01  2.2938252734756731e-01  2.2114509031964810e-01  2.4178001920605713e-01  2.4134790938721482e-01  2.6226050795450001e-01  2.5892409279495782e-01  3.0096605615965027e-01  3.1683009345941870e-01  3.3277126833942650e-01  3.7632486251212138e-01  3.9197515292104890e-01  4.0486050162449266e-01  4.3403421259157288e-01  4.3660974474012171e-01  4.6173666754731857e-01  4.3947670841881220e-01  4.3540661405062486e-01  4.4883891977147389e-01  4.2957111358468147e-01  4.0560182638635350e-01  3.9656807482357997e-01  3.7657761298862247e-01  3.4080968187484201e-01  3.1017573784605484e-01  3.0953767949643385e-01  2.5199103980125609e-01  2.2281737775173291e-01  2.1608472371476870e-01  2.1798935553072366e-01  1.8705530837250636e-01  2.0078674093207396e-01  1.8855468624729635e-01  2.0343147893523200e-01  1.9662171067675263e-01  2.0131126619553935e-01  2.1378218752315983e-01  2.3522096328225622e-01  2.3240190060000038e-01  2.4714895956625632e-01  2.7154142787838220e-01  3.0501733190511449e-01  3.1222931843014029e-01  3.5104838662105592e-01  3.7343846619328580e-01  4.0400721557137081e-01  4.1329143931997675e-01  4.2356098638116318e-01  4.5162489990267396e-01  4.3399438639941301e-01  4.2525652454050428e-01  4.4265795180334311e-01  4.0368796348743091e-01  4.0754421660506557e-01  4.0133222876510177e-01  3.6410540809305236e-01  3.1552255787680789e-01  2.9498036366673319e-01  2.6236055583838847e-01  2.2655422537706263e-01  1.9453733153221828e-01  2.1882107834689468e-01  1.8365085541436926e-01  1.7944634973245913e-01  1.7407880876642401e-01  1.7806744564165009e-01  1.8490939188632186e-01  1.8085206753801966e-01  1.7853678766182016e-01  1.7432819085285087e-01  2.0687729045811637e-01  2.2354071841954098e-01  2.1758251251621066e-01  2.5832098863027875e-01  2.7070603301266039e-01  3.0150983015846577e-01  3.2942957209360918e-01  3.5186684418062414e-01  3.9447212000728887e-01  4.1289703303554726e-01  4.0485263069258537e-01  4.3805205738192254e-01  4.2343410767645145e-01  4.1569536977702987e-01  4.2426816366446490e-01  3.9885515131527038e-01  3.9917898405216629e-01  3.7873300398037696e-01  3.1937559804709603e-01  2.9059134793726227e-01  2.6217460800308995e-01  2.4185058159272485e-01  2.0756657390557609e-01  2.1819280618346004e-01  1.9793718520881304e-01  1.8183549819195335e-01  1.6426554534957746e-01  1.5948996314302558e-01  1.6796930666046106e-01  1.6517186093620093e-01  1.7674382549382223e-01  1.6082115205296199e-01  1.5990035211468923e-01  1.7048057848268988e-01  1.9566274841450190e-01  2.1016033589297628e-01  2.3237675307261479e-01  2.5242289766991149e-01  2.6510392466860566e-01  3.1644630289477710e-01  3.2378955106051371e-01  3.6408819105342355e-01  3.9306929990190537e-01  3.9416539606814693e-01  4.2230280617859378e-01  4.1319894150500469e-01  4.0503502960844939e-01  4.2135783032436536e-01  3.8605840543951708e-01  3.8717630258828112e-01  3.5156251516140558e-01  3.0872665032687807e-01  2.8890376693367081e-01  2.6018587378088864e-01  2.2417948342650845e-01  2.1918312333521284e-01  1.8736669449902010e-01  1.7625160028688167e-01  1.5219816386052740e-01  1.2962014981513403e-01  1.3864173991775489e-01  1.3192608652348775e-01  1.3545603109481308e-01  1.4284611091701183e-01  1.5304716401017329e-01  1.4386134751126131e-01  1.5227810853871895e-01  1.7718362146245431e-01  1.7689336033120465e-01  2.2265910200743283e-01  2.3757114729431034e-01  2.4502267008740078e-01  2.9063129660803538e-01  3.2306094780842226e-01  3.5215785372623476e-01  3.7154685504671026e-01  3.7265268830541992e-01  4.1507847937098591e-01  4.0733569378278522e-01  3.9434504140581095e-01  4.0806441075995648e-01  3.8863542026417630e-01  3.7928304605107377e-01  3.5619925831894006e-01  3.0916840727201034e-01  2.9952147022978776e-01  2.3224804730366305e-01  2.0953260230731607e-01  1.8087078923534095e-01  1.4869790917955655e-01  1.3930364718561017e-01  1.1694043441082858e-01  1.0318886824519709e-01  1.3867535392773231e-01  1.0629153105764279e-01  1.0946604879059026e-01  1.2282775315701373e-01  1.3454668890857374e-01  1.2646825938678324e-01  1.4093818866326838e-01  1.4386592839188173e-01  1.6504392531798265e-01  1.8950303321934980e-01  2.3523779905857223e-01  2.3770721197936290e-01  2.7624951004716275e-01  3.0224890206479127e-01  3.6035101208771214e-01  3.7092003951991726e-01  3.6617155908315535e-01  3.9984204876772877e-01  3.9802733804202473e-01  3.8476391774435664e-01  4.0878804873637847e-01  3.7390523511411933e-01  3.7198863576867613e-01  3.2901622018875060e-01  3.0653567559061790e-01  2.6628184006765176e-01  2.0079279538139189e-01  1.7661950033745030e-01  1.4025822882840688e-01  1.1348913319876303e-01  1.1731539023421317e-01  6.9537276678329679e-02  1.2400052711086740e-01  9.4000382480347713e-02  1.2075983763248249e-01  7.9505948163388671e-02  1.0369012511082699e-01  1.0574493358072920e-01  1.0759438580915881e-01  9.8215112037081512e-02  1.2465886809148075e-01  1.1795410750796179e-01  1.6662362372977166e-01  2.0131735717271576e-01  2.3793832110035612e-01  2.6103707462480047e-01  2.8623856141849296e-01  3.3314594404565295e-01  3.6339257659647156e-01  3.5382284491471389e-01  3.9502488928925539e-01  3.8725076129971908e-01  3.8237753379790546e-01  3.9878913387088433e-01  3.6780034429279695e-01  3.5596394973955076e-01  3.2564107339588111e-01  2.9448145255681002e-01  2.5009800134304960e-01  1.7578329614090821e-01  1.4113164133529776e-01  1.0845159570413078e-01  8.4590414807464653e-02  5.8044940681785034e-02  6.4862325874870397e-02  5.7793566806571391e-02  4.5725343625611259e-02  5.0543011720031034e-02  7.0103803608167314e-02  7.3909222716247169e-02  7.2857916930889027e-02  7.0464213189650293e-02  7.3950746333978717e-02  7.2887365947181953e-02  9.2216081816839129e-02  1.1932223294787705e-01  1.8011291348670633e-01  2.0843140848937763e-01  2.6099652865242901e-01  2.7627547900862920e-01  3.2571058539699266e-01  3.5366900559090847e-01  3.4258399718311500e-01  3.8543035982247198e-01  3.8201667977048848e-01  3.7679486390610634e-01  3.9706365027667107e-01  3.7154874404320576e-01  3.5259332464118026e-01  3.3228318053540679e-01  2.9195428265907192e-01  2.4868617262639423e-01  1.5291320058322869e-01  1.2559817511057039e-01  8.0883636363857592e-02  3.4630631055635963e-02  1.8565594293251240e-02  8.7990959595059329e-03  2.9336927244995592e-03  1.4788414152648120e-03  1.0555152053376123e-03  3.1060799069249582e-03  3.0233400749685016e-02  4.0394836523500996e-02  3.4048037688597196e-02  2.9404246961366495e-02  3.8024846164082513e-02  4.6170659440820092e-02  9.2590850464287597e-02  1.4881027746209874e-01  2.0688494047685846e-01  2.4994638506571601e-01  2.7185246933552060e-01  3.3111067667730004e-01  3.4679829926037720e-01  3.4919698748014721e-01  3.7841184128434796e-01  3.7530005490544111e-01  3.7468774205525374e-01  3.9952746002391659e-01  3.6115801379326296e-01  3.6699070934574962e-01  3.2274025318532013e-01  3.0834261844526317e-01  2.3729967220679254e-01  1.5918765611940366e-01  1.1265396160171165e-01  5.6654577440224729e-02  1.6061310052981968e-02  4.3518864676229865e-03  2.3121231721986925e-03  1.6417292352023153e-03  1.1045400241164577e-03  6.5712024923745421e-04  4.9019714265733413e-04  5.0632404261989790e-04  7.7378318804647911e-04  1.5631834866780161e-03  2.9510735256156029e-03  6.7394075514106205e-03  3.2342014523357825e-02  6.0032814925242962e-02  1.3822377993411755e-01  1.9021238547371833e-01  2.5557892179688319e-01  2.8211311312132831e-01  3.1966767016438219e-01  3.6282640422769147e-01  3.3377441307927885e-01  3.8308523009474121e-01  3.7057881882248217e-01  3.7920456677155651e-01  3.9767216768336172e-01  3.7226948784294323e-01  3.5442721674442035e-01  3.3305101945584442e-01  2.9042515615746373e-01  2.5133237236681100e-01  1.5946680807900199e-01  1.2351054790828886e-01  6.8713776261813450e-02  3.2905060831244740e-02  1.3206232955373348e-02  6.6436100132009485e-03  5.8746313606069236e-03  1.5182503269070478e-02  3.2971436420350018e-02  3.0659154469947686e-02  2.6215580392033319e-03  9.7439811194056404e-04  1.2052941721070742e-03  1.7990918416114624e-03  4.8892352630194721e-03  3.2564147521357958e-02  6.5457965861284828e-02  1.2584550754640481e-01  1.9604056592234423e-01  2.4311252211085727e-01  2.7307577911364472e-01  3.3313185943049373e-01  3.4792606158557893e-01  3.4931493005759445e-01  3.7648967884592316e-01  3.7402210375122252e-01  3.8659029785210447e-01  3.9950293118845237e-01  3.6961733520915818e-01  3.6130036699991741e-01  3.2606213714943710e-01  2.8903899646036180e-01  2.5154585825429626e-01  1.8643586431150733e-01  1.4644664947288838e-01  9.5442047192876717e-02  5.8648007993479627e-02  4.9518793035269210e-02  5.3113464296620630e-02  5.6941734182863107e-02  5.5073813898718606e-02  7.0440237448820456e-02  7.1282586749534554e-02  6.1966750994032739e-02  4.9748980942802758e-02  5.1817365592658933e-02  4.2651962677385663e-02  5.2044506421440352e-02  5.3257904231408970e-02  8.0806300394775543e-02  1.5419001157562912e-01  1.9636308569057292e-01  2.6049761310970510e-01  2.6933386295902234e-01  3.2655911902006646e-01  3.5701843638720049e-01  3.4071572454611504e-01  3.8372065167996028e-01  3.7931416848785643e-01  3.9072760855993172e-01  4.0916139683925207e-01  3.7439200093495512e-01  3.8078898110983372e-01  3.3701305353063177e-01  2.9944388772370190e-01  2.5876618807338225e-01  2.1496886540575702e-01  1.8776316822111816e-01  1.3339136518185632e-01  9.6412910907906851e-02  7.7735981456046599e-02  8.1328272322396922e-02  8.3178676276020810e-02  9.2980206762708600e-02  1.0424159654339511e-01  1.1112327526501635e-01  1.0187483737705974e-01  9.9152339996808836e-02  9.0710319565850794e-02  9.6015117555207294e-02  8.8778551849153384e-02  9.1036987768349079e-02  1.3411941888045892e-01  1.8273635154193535e-01  2.3528222893323120e-01  2.4489828106355568e-01  2.8670030240469246e-01  3.3923700386589095e-01  3.6562962892288886e-01  3.5218336801573158e-01  3.8907902665785188e-01  3.8433291811359510e-01  4.0282384263227089e-01  4.0826210096236992e-01  3.8808171173055084e-01  3.8888098575952362e-01  3.6883319565342459e-01  3.0558450496299661e-01  2.8157913457584638e-01  2.2952739106845979e-01  2.3178976160035425e-01  1.7872962474609866e-01  1.3919291412880855e-01  1.2855065449078767e-01  1.1278001046765387e-01  1.2195229668562636e-01  1.2739679011367530e-01  1.2997061258565273e-01  1.3970543267786739e-01  1.2864122173973100e-01  1.2515832230638979e-01  1.2732703261784675e-01  1.2830216618808385e-01  1.3646913171824077e-01  1.5048898562712851e-01  1.7922970960981316e-01  2.4212520167617796e-01  2.2970311527764758e-01  2.8294864988076263e-01  2.9755303475679784e-01  3.5904826988227612e-01  3.7428875721715810e-01  3.5974424422565121e-01  3.9540154271862982e-01  3.9332494397627044e-01  4.1580570473796363e-01  4.2041884371564198e-01  3.8005464679837914e-01  3.9521578893227610e-01  3.7397811386004576e-01  3.1859613052067454e-01  2.7270761085394946e-01  2.4043368890330452e-01  2.2631123757650576e-01  2.2788639343412762e-01  1.6820237843322067e-01  1.7158582723720664e-01  1.5370084335049572e-01  1.4937470572035125e-01  1.5453201700067673e-01  1.6154027674857338e-01  1.5500388622471389e-01  1.5068099443287233e-01  1.4143358836766012e-01  1.4342557254850735e-01  1.5437960486633096e-01  1.7744169957564934e-01  1.7000390223072678e-01  2.3682357192460013e-01  2.2221056105758760e-01  2.4914564572923564e-01  2.6564817058219264e-01  3.0629422151572377e-01  3.6807829275676746e-01  3.7421586766536863e-01  3.6495170910279395e-01  4.0459637344929622e-01  4.0480081014054881e-01  4.2485548455934191e-01  4.2665173952346119e-01  3.9197865787785435e-01  3.9615759198586203e-01  3.9543371234382085e-01  3.4903021579727983e-01  2.9811591044487301e-01  2.5270328549974974e-01  2.4327932869520727e-01  2.1610882583401420e-01  2.1656889612435609e-01  1.8919834221237986e-01  1.8536443003623809e-01  1.6775900595970211e-01  1.7540151581345906e-01  1.6631358526097639e-01  1.7244811766873647e-01  1.4898570097701641e-01  1.6124091173924021e-01  1.5462826768549712e-01  1.7907849306381554e-01  1.7261279543408095e-01  2.1889425038263760e-01  2.0666484978810909e-01  2.4650509187904165e-01  2.4448928522484614e-01  2.9525669026143259e-01  3.5559703324225839e-01  3.7923307172913112e-01  3.8128517653558663e-01  3.7376819402991995e-01  4.1472758886976702e-01  4.1318948356968310e-01  4.3336183463765593e-01  4.4811124346801873e-01  4.0397961188295856e-01  4.0473769155725753e-01  4.0178759150760779e-01  3.7983107024370838e-01  3.4225019692258030e-01  3.0071259271037576e-01  2.7321823429783465e-01  2.4893624683663820e-01  2.0686254129608345e-01  2.2897377273985800e-01  2.0030841077622827e-01  1.8712791635330392e-01  1.7577675000949930e-01  1.8006660095844715e-01  1.6790226978428369e-01  1.7950778685282726e-01  1.8109496967261993e-01  1.9441754483540488e-01  1.9771217242786640e-01  2.3309130669577938e-01  2.1208714516160654e-01  2.6027615031862517e-01  2.7638619515915275e-01  2.9596319508044222e-01  3.6347585129441440e-01  3.6885627237776564e-01  3.7840655036447907e-01  3.8643622077160988e-01  3.9274061393888232e-01  4.3101622488401464e-01  4.2239013255956664e-01  4.4079261855412333e-01  4.5665734763918381e-01  4.3353267095339626e-01  4.0813263513209241e-01  3.9677637408900424e-01  3.7705903816114678e-01  3.5029205518024570e-01  3.2611952699970770e-01  3.1540310405428917e-01  2.7321912553381056e-01  2.4247456459277850e-01  2.2959831960031266e-01  2.3485746249921419e-01  2.1038282626726254e-01  2.1121779978155902e-01  2.0553220517748322e-01  2.1310587469043024e-01  2.1304878186008694e-01  2.2364476696717595e-01  2.2596716279658893e-01  2.4952330283027335e-01  2.4381190080227619e-01  2.6023572074949841e-01  2.8997515818954256e-01  3.1016045374108275e-01  3.3222578629393518e-01  3.5472794092351478e-01  3.5587190780855665e-01  3.7487662279478690e-01  4.0413068717928013e-01  4.1568122113185563e-01  4.3823033184040810e-01  4.3264511026457153e-01  4.4189033903840380e-01  4.6645700076643742e-01  4.3460095761624040e-01  4.408504894