<?xml version="1.0"?>
<VTKFile type="UnstructuredGrid"  version="0.1"  >
<UnstructuredGrid>
<Piece  NumberOfPoints="1089" NumberOfCells="2048">
<Points>
<DataArray  type="Float64"  NumberOfComponents="3"  format="ascii">0 0 0  0.03125 0 0  0.0625 0 0  0.09375 0 0  0.125 0 0  0.15625 0 0  0.1875 0 0  0.21875 0 0  0.25 0 0  0.28125 0 0  0.3125 0 0  0.34375 0 0  0.375 0 0  0.40625 0 0  0.4375 0 0  0.46875 0 0  0.5 0 0  0.53125 0 0  0.5625 0 0  0.59375 0 0  0.625 0 0  0.65625 0 0  0.6875 0 0  0.71875 0 0  0.75 0 0  0.78125 0 0  0.8125 0 0  0.84375 0 0  0.875 0 0  0.90625 0 0  0.9375 0 0  0.96875 0 0  1 0 0  0 0.03125 0  0.03125 0.03125 0  0.0625 0.03125 0  0.09375 0.03125 0  0.125 0.03125 0  0.15625 0.03125 0  0.1875 0.03125 0  0.21875 0.03125 0  0.25 0.03125 0  0.28125 0.03125 0  0.3125 0.03125 0  0.34375 0.03125 0  0.375 0.03125 0  0.40625 0.03125 0  0.4375 0.03125 0  0.46875 0.03125 0  0.5 0.03125 0  0.53125 0.03125 0  0.5625 0.03125 0  0.59375 0.03125 0  0.625 0.03125 0  0.65625 0.03125 0  0.6875 0.03125 0  0.71875 0.03125 0  0.75 0.03125 0  0.78125 0.03125 0  0.8125 0.03125 0  0.84375 0.03125 0  0.875 0.03125 0  0.90625 0.03125 0  0.9375 0.03125 0  0.96875 0.03125 0  1 0.03125 0  0 0.0625 0  0.03125 0.0625 0  0.0625 0.0625 0  0.09375 0.0625 0  0.125 0.0625 0  0.15625 0.0625 0  0.1875 0.0625 0  0.21875 0.0625 0  0.25 0.0625 0  0.28125 0.0625 0  0.3125 0.0625 0  0.34375 0.0625 0  0.375 0.0625 0  0.40625 0.0625 0  0.4375 0.0625 0  0.46875 0.0625 0  0.5 0.0625 0  0.53125 0.0625 0  0.5625 0.0625 0  0.59375 0.0625 0  0.625 0.0625 0  0.65625 0.0625 0  0.6875 0.0625 0  0.71875 0.0625 0  0.75 0.0625 0  0.78125 0.0625 0  0.8125 0.0625 0  0.84375 0.0625 0  0.875 0.0625 0  0.90625 0.0625 0  0.9375 0.0625 0  0.96875 0.0625 0  1 0.0625 0  0 0.09375 0  0.03125 0.09375 0  0.0625 0.09375 0  0.09375 0.09375 0  0.125 0.09375 0  0.15625 0.09375 0  0.1875 0.09375 0  0.21875 0.09375 0  0.25 0.09375 0  0.28125 0.09375 0  0.3125 0.09375 0  0.34375 0.09375 0  0.375 0.09375 0  0.40625 0.09375 0  0.4375 0.09375 0  0.46875 0.09375 0  0.5 0.09375 0  0.53125 0.09375 0  0.5625 0.09375 0  0.59375 0.09375 0  0.625 0.09375 0  0.65625 0.09375 0  0.6875 0.09375 0  0.71875 0.09375 0  0.75 0.09375 0  0.78125 0.09375 0  0.8125 0.09375 0  0.84375 0.09375 0  0.875 0.09375 0  0.90625 0.09375 0  0.9375 0.09375 0  0.96875 0.09375 0  1 0.09375 0  0 0.125 0  0.03125 0.125 0  0.0625 0.125 0  0.09375 0.125 0  0.125 0.125 0  0.15625 0.125 0  0.1875 0.125 0  0.21875 0.125 0  0.25 0.125 0  0.28125 0.125 0  0.3125 0.125 0  0.34375 0.125 0  0.375 0.125 0  0.40625 0.125 0  0.4375 0.125 0  0.46875 0.125 0  0.5 0.125 0  0.53125 0.125 0  0.5625 0.125 0  0.59375 0.125 0  0.625 0.125 0  0.65625 0.125 0  0.6875 0.125 0  0.71875 0.125 0  0.75 0.125 0  0.78125 0.125 0  0.8125 0.125 0  0.84375 0.125 0  0.875 0.125 0  0.90625 0.125 0  0.9375 0.125 0  0.96875 0.125 0  1 0.125 0  0 0.15625 0  0.03125 0.15625 0  0.0625 0.15625 0  0.09375 0.15625 0  0.125 0.15625 0  0.15625 0.15625 0  0.1875 0.15625 0  0.21875 0.15625 0  0.25 0.15625 0  0.28125 0.15625 0  0.3125 0.15625 0  0.34375 0.15625 0  0.375 0.15625 0  0.40625 0.15625 0  0.4375 0.15625 0  0.46875 0.15625 0  0.5 0.15625 0  0.53125 0.15625 0  0.5625 0.15625 0  0.59375 0.15625 0  0.625 0.15625 0  0.65625 0.15625 0  0.6875 0.15625 0  0.71875 0.15625 0  0.75 0.15625 0  0.78125 0.15625 0  0.8125 0.15625 0  0.84375 0.15625 0  0.875 0.15625 0  0.90625 0.15625 0  0.9375 0.15625 0  0.96875 0.15625 0  1 0.15625 0  0 0.1875 0  0.03125 0.1875 0  0.0625 0.1875 0  0.09375 0.1875 0  0.125 0.1875 0  0.15625 0.1875 0  0.1875 0.1875 0  0.21875 0.1875 0  0.25 0.1875 0  0.28125 0.1875 0  0.3125 0.1875 0  0.34375 0.1875 0  0.375 0.1875 0  0.40625 0.1875 0  0.4375 0.1875 0  0.46875 0.1875 0  0.5 0.1875 0  0.53125 0.1875 0  0.5625 0.1875 0  0.59375 0.1875 0  0.625 0.1875 0  0.65625 0.1875 0  0.6875 0.1875 0  0.71875 0.1875 0  0.75 0.1875 0  0.78125 0.1875 0  0.8125 0.1875 0  0.84375 0.1875 0  0.875 0.1875 0  0.90625 0.1875 0  0.9375 0.1875 0  0.96875 0.1875 0  1 0.1875 0  0 0.21875 0  0.03125 0.21875 0  0.0625 0.21875 0  0.09375 0.21875 0  0.125 0.21875 0  0.15625 0.21875 0  0.1875 0.21875 0  0.21875 0.21875 0  0.25 0.21875 0  0.28125 0.21875 0  0.3125 0.21875 0  0.34375 0.21875 0  0.375 0.21875 0  0.40625 0.21875 0  0.4375 0.21875 0  0.46875 0.21875 0  0.5 0.21875 0  0.53125 0.21875 0  0.5625 0.21875 0  0.59375 0.21875 0  0.625 0.21875 0  0.65625 0.21875 0  0.6875 0.21875 0  0.71875 0.21875 0  0.75 0.21875 0  0.78125 0.21875 0  0.8125 0.21875 0  0.84375 0.21875 0  0.875 0.21875 0  0.90625 0.21875 0  0.9375 0.21875 0  0.96875 0.21875 0  1 0.21875 0  0 0.25 0  0.03125 0.25 0  0.0625 0.25 0  0.09375 0.25 0  0.125 0.25 0  0.15625 0.25 0  0.1875 0.25 0  0.21875 0.25 0  0.25 0.25 0  0.28125 0.25 0  0.3125 0.25 0  0.34375 0.25 0  0.375 0.25 0  0.40625 0.25 0  0.4375 0.25 0  0.46875 0.25 0  0.5 0.25 0  0.53125 0.25 0  0.5625 0.25 0  0.59375 0.25 0  0.625 0.25 0  0.65625 0.25 0  0.6875 0.25 0  0.71875 0.25 0  0.75 0.25 0  0.78125 0.25 0  0.8125 0.25 0  0.84375 0.25 0  0.875 0.25 0  0.90625 0.25 0  0.9375 0.25 0  0.96875 0.25 0  1 0.25 0  0 0.28125 0  0.03125 0.28125 0  0.0625 0.28125 0  0.09375 0.28125 0  0.125 0.28125 0  0.15625 0.28125 0  0.1875 0.28125 0  0.21875 0.28125 0  0.25 0.28125 0  0.28125 0.28125 0  0.3125 0.28125 0  0.34375 0.28125 0  0.375 0.28125 0  0.40625 0.28125 0  0.4375 0.28125 0  0.46875 0.28125 0  0.5 0.28125 0  0.53125 0.28125 0  0.5625 0.28125 0  0.59375 0.28125 0  0.625 0.28125 0  0.65625 0.28125 0  0.6875 0.28125 0  0.71875 0.28125 0  0.75 0.28125 0  0.78125 0.28125 0  0.8125 0.28125 0  0.84375 0.28125 0  0.875 0.28125 0  0.90625 0.28125 0  0.9375 0.28125 0  0.96875 0.28125 0  1 0.28125 0  0 0.3125 0  0.03125 0.3125 0  0.0625 0.3125 0  0.09375 0.3125 0  0.125 0.3125 0  0.15625 0.3125 0  0.1875 0.3125 0  0.21875 0.3125 0  0.25 0.3125 0  0.28125 0.3125 0  0.3125 0.3125 0  0.34375 0.3125 0  0.375 0.3125 0  0.40625 0.3125 0  0.4375 0.3125 0  0.46875 0.3125 0  0.5 0.3125 0  0.53125 0.3125 0  0.5625 0.3125 0  0.59375 0.3125 0  0.625 0.3125 0  0.65625 0.3125 0  0.6875 0.3125 0  0.71875 0.3125 0  0.75 0.3125 0  0.78125 0.3125 0  0.8125 0.3125 0  0.84375 0.3125 0  0.875 0.3125 0  0.90625 0.3125 0  0.9375 0.3125 0  0.96875 0.3125 0  1 0.3125 0  0 0.34375 0  0.03125 0.34375 0  0.0625 0.34375 0  0.09375 0.34375 0  0.125 0.34375 0  0.15625 0.34375 0  0.1875 0.34375 0  0.21875 0.34375 0  0.25 0.34375 0  0.28125 0.34375 0  0.3125 0.34375 0  0.34375 0.34375 0  0.375 0.34375 0  0.40625 0.34375 0  0.4375 0.34375 0  0.46875 0.34375 0  0.5 0.34375 0  0.53125 0.34375 0  0.5625 0.34375 0  0.59375 0.34375 0  0.625 0.34375 0  0.65625 0.34375 0  0.6875 0.34375 0  0.71875 0.34375 0  0.75 0.34375 0  0.78125 0.34375 0  0.8125 0.34375 0  0.84375 0.34375 0  0.875 0.34375 0  0.90625 0.34375 0  0.9375 0.34375 0  0.96875 0.34375 0  1 0.34375 0  0 0.375 0  0.03125 0.375 0  0.0625 0.375 0  0.09375 0.375 0  0.125 0.375 0  0.15625 0.375 0  0.1875 0.375 0  0.21875 0.375 0  0.25 0.375 0  0.28125 0.375 0  0.3125 0.375 0  0.34375 0.375 0  0.375 0.375 0  0.40625 0.375 0  0.4375 0.375 0  0.46875 0.375 0  0.5 0.375 0  0.53125 0.375 0  0.5625 0.375 0  0.59375 0.375 0  0.625 0.375 0  0.65625 0.375 0  0.6875 0.375 0  0.71875 0.375 0  0.75 0.375 0  0.78125 0.375 0  0.8125 0.375 0  0.84375 0.375 0  0.875 0.375 0  0.90625 0.375 0  0.9375 0.375 0  0.96875 0.375 0  1 0.375 0  0 0.40625 0  0.03125 0.40625 0  0.0625 0.40625 0  0.09375 0.40625 0  0.125 0.40625 0  0.15625 0.40625 0  0.1875 0.40625 0  0.21875 0.40625 0  0.25 0.40625 0  0.28125 0.40625 0  0.3125 0.40625 0  0.34375 0.40625 0  0.375 0.40625 0  0.40625 0.40625 0  0.4375 0.40625 0  0.46875 0.40625 0  0.5 0.40625 0  0.53125 0.40625 0  0.5625 0.40625 0  0.59375 0.40625 0  0.625 0.40625 0  0.65625 0.40625 0  0.6875 0.40625 0  0.71875 0.40625 0  0.75 0.40625 0  0.78125 0.40625 0  0.8125 0.40625 0  0.84375 0.40625 0  0.875 0.40625 0  0.90625 0.40625 0  0.9375 0.40625 0  0.96875 0.40625 0  1 0.40625 0  0 0.4375 0  0.03125 0.4375 0  0.0625 0.4375 0  0.09375 0.4375 0  0.125 0.4375 0  0.15625 0.4375 0  0.1875 0.4375 0  0.21875 0.4375 0  0.25 0.4375 0  0.28125 0.4375 0  0.3125 0.4375 0  0.34375 0.4375 0  0.375 0.4375 0  0.40625 0.4375 0  0.4375 0.4375 0  0.46875 0.4375 0  0.5 0.4375 0  0.53125 0.4375 0  0.5625 0.4375 0  0.59375 0.4375 0  0.625 0.4375 0  0.65625 0.4375 0  0.6875 0.4375 0  0.71875 0.4375 0  0.75 0.4375 0  0.78125 0.4375 0  0.8125 0.4375 0  0.84375 0.4375 0  0.875 0.4375 0  0.90625 0.4375 0  0.9375 0.4375 0  0.96875 0.4375 0  1 0.4375 0  0 0.46875 0  0.03125 0.46875 0  0.0625 0.46875 0  0.09375 0.46875 0  0.125 0.46875 0  0.15625 0.46875 0  0.1875 0.46875 0  0.21875 0.46875 0  0.25 0.46875 0  0.28125 0.46875 0  0.3125 0.46875 0  0.34375 0.46875 0  0.375 0.46875 0  0.40625 0.46875 0  0.4375 0.46875 0  0.46875 0.46875 0  0.5 0.46875 0  0.53125 0.46875 0  0.5625 0.46875 0  0.59375 0.46875 0  0.625 0.46875 0  0.65625 0.46875 0  0.6875 0.46875 0  0.71875 0.46875 0  0.75 0.46875 0  0.78125 0.46875 0  0.8125 0.46875 0  0.84375 0.46875 0  0.875 0.46875 0  0.90625 0.46875 0  0.9375 0.46875 0  0.96875 0.46875 0  1 0.46875 0  0 0.5 0  0.03125 0.5 0  0.0625 0.5 0  0.09375 0.5 0  0.125 0.5 0  0.15625 0.5 0  0.1875 0.5 0  0.21875 0.5 0  0.25 0.5 0  0.28125 0.5 0  0.3125 0.5 0  0.34375 0.5 0  0.375 0.5 0  0.40625 0.5 0  0.4375 0.5 0  0.46875 0.5 0  0.5 0.5 0  0.53125 0.5 0  0.5625 0.5 0  0.59375 0.5 0  0.625 0.5 0  0.65625 0.5 0  0.6875 0.5 0  0.71875 0.5 0  0.75 0.5 0  0.78125 0.5 0  0.8125 0.5 0  0.84375 0.5 0  0.875 0.5 0  0.90625 0.5 0  0.9375 0.5 0  0.96875 0.5 0  1 0.5 0  0 0.53125 0  0.03125 0.53125 0  0.0625 0.53125 0  0.09375 0.53125 0  0.125 0.53125 0  0.15625 0.53125 0  0.1875 0.53125 0  0.21875 0.53125 0  0.25 0.53125 0  0.28125 0.53125 0  0.3125 0.53125 0  0.34375 0.53125 0  0.375 0.53125 0  0.40625 0.53125 0  0.4375 0.53125 0  0.46875 0.53125 0  0.5 0.53125 0  0.53125 0.53125 0  0.5625 0.53125 0  0.59375 0.53125 0  0.625 0.53125 0  0.65625 0.53125 0  0.6875 0.53125 0  0.71875 0.53125 0  0.75 0.53125 0  0.78125 0.531
[...]
<PointData  Scalars="ControlVisualisation"> 
<DataArray  type="Float64"  Name="ControlVisualisation"  format="ascii">4.9742532761733033e-01  4.9465649654159816e-01  4.8617747588341315e-01  4.7520480047733926e-01  4.6156658660364580e-01  4.4364354260639649e-01  4.2441141834014684e-01  4.0532334611508164e-01  3.8652085438848854e-01  3.6828166275559099e-01  3.5039270602916678e-01  3.3434116020523685e-01  3.2167170251866728e-01  3.1065622281248789e-01  3.0337083800845582e-01  2.9873203432178003e-01  2.9826303847233970e-01  3.0153253873042490e-01  3.0874789595806651e-01  3.1877565067241176e-01  3.3180031472623089e-01  3.4607369050107256e-01  3.6300865389152964e-01  3.8239943594491521e-01  4.0207938534407062e-01  4.2135059810547693e-01  4.4087107169838025e-01  4.5892525579872856e-01  4.7576183589655607e-01  4.8948515887564947e-01  5.0040580302298321e-01  5.0826925860936834e-01  5.0987860828587328e-01  4.9610713709541659e-01  4.9077895360938267e-01  4.8819703860322350e-01  4.7166627292967761e-01  4.5823112439918307e-01  4.4135984399088418e-01  4.2298035401627404e-01  4.0219138293220824e-01  3.8298705385464227e-01  3.6387831425850448e-01  3.4488720748792101e-01  3.3033478490092777e-01  3.1546379468324709e-01  3.0573891177425649e-01  2.9748055460769057e-01  2.9410182931332840e-01  2.9303139747872409e-01  2.9722221910278340e-01  3.0401586503159633e-01  3.1461444504445713e-01  3.2746738487073951e-01  3.4305960724385354e-01  3.5966226043198574e-01  3.7915479923436557e-01  3.9816921000070798e-01  4.1860112413219763e-01  4.3808229036656959e-01  4.5763041523289799e-01  4.7390062676612926e-01  4.8614888327920575e-01  5.0106830864510932e-01  5.0402812021951626e-01  5.0951405821207985e-01  4.9326194424114639e-01  4.9136704597055542e-01  4.7780522682134957e-01  4.7042839740757958e-01  4.5227796339616494e-01  4.3695268294046596e-01  4.1695738257951059e-01  3.9784669291950131e-01  3.7590208714219936e-01  3.5602553009189586e-01  3.3793020349523156e-01  3.2047014189627648e-01  3.0661244775121915e-01  2.9567479755760845e-01  2.8685886183895976e-01  2.8279475374530277e-01  2.8319958967823733e-01  2.8625846366610375e-01  2.9346585842515421e-01  3.0544168204280642e-01  3.1851979516415940e-01  3.3482091698821043e-01  3.5289197249579751e-01  3.7250029809500923e-01  3.9238068317572716e-01  4.1340889704555611e-01  4.3324245917732124e-01  4.5196718135196429e-01  4.6779000201926546e-01  4.8379444107149749e-01  4.9125701748353906e-01  5.0445594307636044e-01  5.0556001613075818e-01  4.8892141461498106e-01  4.8349290964243530e-01  4.7809183341779837e-01  4.6725046832975109e-01  4.4983109222135381e-01  4.3219797535028326e-01  4.1090369052625014e-01  3.8856153789844583e-01  3.6769849558861795e-01  3.4502941817418481e-01  3.2835660459608501e-01  3.0870586918993970e-01  2.9578457582991879e-01  2.8232401648051103e-01  2.7449644528711359e-01  2.7054206075192133e-01  2.6957491156277863e-01  2.7369562649231566e-01  2.8017156269369597e-01  2.9131237565862961e-01  3.0650916239538417e-01  3.2242886675675914e-01  3.4291007031704324e-01  3.6123009651625776e-01  3.8481263427948664e-01  4.0496970172203262e-01  4.2619565792597519e-01  4.4719237707233750e-01  4.6328224412715430e-01  4.7964100952155370e-01  4.9003158983276890e-01  4.9506475570358338e-01  5.0023667775698311e-01  4.8403910483176332e-01  4.7877021225856303e-01  4.7022561950711722e-01  4.5908216825311504e-01  4.4011267518938690e-01  4.2076116595456081e-01  3.9908007335770929e-01  3.8038779693929448e-01  3.5537923053682285e-01  3.3753865605416189e-01  3.1462680840929663e-01  2.9862323473781083e-01  2.8149290736805382e-01  2.7201271249662068e-01  2.6112005300798258e-01  2.5765652870736278e-01  2.5850820847216488e-01  2.5987480157110121e-01  2.6684678038593884e-01  2.7850849663176841e-01  2.9183469242725946e-01  3.1007518534684414e-01  3.2971681370418798e-01  3.5221634089480303e-01  3.7362453935335727e-01  3.9777050557898280e-01  4.1498350132003547e-01  4.3594322899280491e-01  4.5292407962749343e-01  4.7147717404311618e-01  4.8185454663392435e-01  4.8943738802533349e-01  4.9324556673842257e-01  4.7667682567724728e-01  4.7135418550491665e-01  4.6491208394349520e-01  4.5421066112405295e-01  4.3172019168324371e-01  4.1443868706710185e-01  3.9182253932997529e-01  3.6699492702439807e-01  3.4643473673801350e-01  3.1946244799781370e-01  3.0339958676786949e-01  2.8112503244491510e-01  2.7010904253311874e-01  2.5536796122074240e-01  2.4744452048477958e-01  2.4420122419128856e-01  2.4318555745883763e-01  2.4655777485608937e-01  2.5161722071390652e-01  2.6234958978715872e-01  2.7693326253131290e-01  2.9184024827905619e-01  3.1489491525597968e-01  3.3342210446622483e-01  3.6085712774007744e-01  3.8452524166478619e-01  4.0714656114583209e-01  4.2988127845709551e-01  4.4459283034351060e-01  4.6447474818969120e-01  4.7604260918915908e-01  4.8192591691439834e-01  4.8382513430608820e-01  4.6842938851636973e-01  4.6392551516852742e-01  4.5845482266296189e-01  4.4232457315188306e-01  4.2155946537707972e-01  4.0506290689201946e-01  3.7444444997598125e-01  3.5665393264520090e-01  3.2866908660555599e-01  3.0812918249671140e-01  2.8515903163768791e-01  2.6708805192712320e-01  2.5140581383648691e-01  2.4087203715435815e-01  2.3166946266663882e-01  2.2788724502958835e-01  2.3015488964890357e-01  2.3118296201973998e-01  2.3689949885791448e-01  2.4889878831401979e-01  2.6065406915200612e-01  2.7639569287709165e-01  2.9674599890507147e-01  3.1964361422904075e-01  3.4165641081709741e-01  3.6974757518126972e-01  3.8891334971798008e-01  4.1820834542395069e-01  4.3470612187442753e-01  4.5292539531169113e-01  4.6736231782380527e-01  4.7207597598879236e-01  4.7437537684430786e-01  4.6075952934322156e-01  4.5523727604427938e-01  4.4799099106696111e-01  4.3123341012776595e-01  4.1552018406578600e-01  3.9026224966501855e-01  3.6441235517069959e-01  3.4136360273976574e-01  3.1348204983321543e-01  2.8527754778659675e-01  2.6676489732335984e-01  2.4443788524266510e-01  2.3413237989300656e-01  2.2188331170439604e-01  2.1346576920985377e-01  2.1175868846964821e-01  2.1241670579198435e-01  2.1546821179534470e-01  2.1970762413436928e-01  2.3079062197171785e-01  2.4610851753311772e-01  2.5745996284860329e-01  2.7872995693671965e-01  2.9883138872748954e-01  3.2622969013034786e-01  3.5401721229240568e-01  3.7623823991596811e-01  4.0263121605528096e-01  4.2527887859799007e-01  4.4265634558238159e-01  4.5648125341685808e-01  4.6106885485969373e-01  4.6512687404964137e-01  4.5321715496137449e-01  4.4463941326659240e-01  4.3736312802062982e-01  4.2530933847348251e-01  4.0215586567905931e-01  3.7708100403000266e-01  3.4706112229608688e-01  3.2431423397969028e-01  2.8702028666153445e-01  2.6830201314627078e-01  2.4635588663809466e-01  2.2957689753112265e-01  2.1723548905129814e-01  2.0743240219296374e-01  1.9875135416807044e-01  1.9779030972305650e-01  1.9985890151508209e-01  1.9904506102368519e-01  2.0416187593166393e-01  2.1138084729271614e-01  2.2593184452122067e-01  2.4156849576951209e-01  2.5912605315108761e-01  2.8039979129765152e-01  3.0193821245593999e-01  3.3536138069584026e-01  3.5860083779716856e-01  3.8851127140796082e-01  4.0982199197998864e-01  4.3134906298092029e-01  4.4612977355119576e-01  4.5016802097394504e-01  4.5565447445162294e-01  4.4426413470977577e-01  4.3524718695526282e-01  4.3041468119917398e-01  4.1130519343313265e-01  3.8736536597863536e-01  3.5870338905660482e-01  3.3379980440516838e-01  2.9973796822241977e-01  2.7196443526508562e-01  2.5083907013877965e-01  2.3219139758166407e-01  2.1145625184590072e-01  2.0333082516808884e-01  1.9216831942899429e-01  1.8344941949976457e-01  1.8602728141104602e-01  1.8377279651885475e-01  1.8680888578009899e-01  1.8505264126936724e-01  1.9458386145473872e-01  2.0252743742706755e-01  2.1766969598409217e-01  2.3970166969029505e-01  2.5988511614544513e-01  2.8384965436881682e-01  3.1130277589979638e-01  3.4084089904769610e-01  3.7059105701194800e-01  3.9506442443260154e-01  4.1405906985592927e-01  4.3341728091541554e-01  4.3970681428948527e-01  4.4591975159590502e-01  4.3413070489026973e-01  4.2641642689986980e-01  4.1910115804982168e-01  3.9969525865859518e-01  3.7410801214424660e-01  3.4994455850679668e-01  3.1520472104259573e-01  2.8477430989597474e-01  2.5375077301340954e-01  2.3433621439130484e-01  2.0897028157947295e-01  1.9460712483815570e-01  1.8447972940511473e-01  1.7335596015711269e-01  1.7094132173526783e-01  1.6875068245871314e-01  1.7151208749742053e-01  1.7138424946323402e-01  1.7280276452333126e-01  1.7554968945681740e-01  1.8553778190987710e-01  1.9464506170382090e-01  2.1512776798861874e-01  2.3797597550168312e-01  2.6303125151884821e-01  2.9481637532827798e-01  3.2037782616079047e-01  3.5633254678286108e-01  3.8307361675313112e-01  4.0204385132332365e-01  4.1957356169521837e-01  4.2744502173371263e-01  4.3543467801780827e-01  4.2492520043707205e-01  4.1658743945127663e-01  4.0994512809041150e-01  3.8850810523942442e-01  3.6362283306322751e-01  3.3412756985956932e-01  2.9971246730580459e-01  2.6437956471288515e-01  2.3437392000385121e-01  2.0692157532519856e-01  1.8597065458118822e-01  1.6911940540267331e-01  1.5658330931680367e-01  1.5530246147857193e-01  1.5013724110656823e-01  1.5467965031293734e-01  1.5222777859249886e-01  1.5613566971171422e-01  1.5680909288088360e-01  1.5854384195755591e-01  1.6214739384548946e-01  1.7204800966651643e-01  1.9018498381357682e-01  2.1427825647900994e-01  2.3917011469387328e-01  2.7530673928749239e-01  3.0470019190440750e-01  3.3726182039530012e-01  3.6781341589476974e-01  3.9108293118134380e-01  4.0892266538024385e-01  4.1637512821665978e-01  4.2518286271937616e-01  4.1675251474181163e-01  4.0918236871255653e-01  3.9955752757824498e-01  3.7771263563680285e-01  3.5082345301598494e-01  3.2252835270413877e-01  2.8192827323834385e-01  2.4668395989958966e-01  2.0726488527503312e-01  1.7989895753274759e-01  1.5655527180041690e-01  1.3552631410423011e-01  1.3135599977743612e-01  1.3176591494091161e-01  1.2957625089454794e-01  1.3375059216617671e-01  1.3170832608320329e-01  1.3278055125973770e-01  1.3637620125110939e-01  1.3677146898822820e-01  1.3645786943882215e-01  1.4323770218710036e-01  1.6132596528496732e-01  1.8708978395803857e-01  2.1726815361759805e-01  2.5276467837274852e-01  2.8913634829297830e-01  3.2451020812891396e-01  3.5288887014048909e-01  3.7719431270995263e-01  3.9793997157970079e-01  4.0719816906397505e-01  4.1586089732525983e-01  4.1013264427629770e-01  4.0035359067881154e-01  3.9292608217712527e-01  3.6875100750807016e-01  3.4402327844521757e-01  3.0993454838723433e-01  2.6703760703113677e-01  2.2352668090557479e-01  1.8015205330526979e-01  1.5075669128964223e-01  1.2109236227777036e-01  1.0287867924050491e-01  1.0399041157316649e-01  1.0042223239553826e-01  1.0304980106744115e-01  1.0209776679833930e-01  1.0611774852608924e-01  1.0824193542344689e-01  1.1131253648517676e-01  1.0963299160603822e-01  1.0888465898565315e-01  1.1211388899101292e-01  1.2878720762275273e-01  1.5797866485420875e-01  1.9216627858390559e-01  2.3514147069198527e-01  2.7022881122841413e-01  3.1303420849531921e-01  3.4358869291649563e-01  3.6757933213228877e-01  3.8945810060345243e-01  3.9720213157580281e-01  4.0733862082802302e-01  4.0455028638688773e-01  3.9651309977163529e-01  3.8599278967180944e-01  3.6285872823030574e-01  3.3592863830304559e-01  2.9896272142895730e-01  2.5204424931853092e-01  2.0326800181578658e-01  1.5743877710138243e-01  1.1841678615036431e-01  8.3950760032245400e-02  6.6989602920282845e-02  6.2341427614158611e-02  5.8778909203811222e-02  6.4119682419362695e-02  6.3337725423928862e-02  6.5616631633071687e-02  7.6599399907596455e-02  8.0899499179623843e-02  7.7554093510027927e-02  7.3428907451968811e-02  7.8246848061886892e-02  9.5586383528935115e-02  1.2720886163769538e-01  1.6910906467040104e-01  2.1645844994479660e-01  2.5985837771412290e-01  2.9851269911156764e-01  3.3528451876814647e-01  3.5931807302355179e-01  3.8223295542177887e-01  3.9154348466555428e-01  3.9967990530348380e-01  4.0206628367301883e-01  3.9196127833685440e-01  3.8285040346638993e-01  3.5962884986834676e-01  3.3110249275697901e-01  2.9450023229866729e-01  2.4157605216479572e-01  1.9185728758125473e-01  1.3783345397940325e-01  9.0912537046542133e-02  4.5701125862598467e-02  2.2202106244053006e-02  1.3458262728221039e-02  4.3954476232167198e-03  1.7096133727089791e-03  1.2146365959156127e-03  3.6314342878264057e-03  3.6278048877198633e-02  4.4548266939862462e-02  4.0290792619952998e-02  3.4586046687241037e-02  3.9291521730805218e-02  6.2839770876679746e-02  1.0429971900338132e-01  1.4798512374394418e-01  2.0454209191783002e-01  2.4762766169413616e-01  2.9605475769729089e-01  3.2698494515075238e-01  3.5528979904112801e-01  3.7709258873994805e-01  3.8567977481370286e-01  3.9514608197691575e-01  4.0111073281712900e-01  3.9225598937561573e-01  3.8275887803201675e-01  3.5764955440756246e-01  3.3236201965350620e-01  2.9017356062372029e-01  2.4135805283014830e-01  1.8631774071336860e-01  1.3065350604164860e-01  7.8300400817473331e-02  2.6507425486910270e-02  4.9447980252338630e-03  2.5142035756508829e-03  1.7928973589998220e-03  1.2410970974217601e-03  7.5187094920638002e-04  5.6664410644266983e-04  5.9226007828376657e-04  9.2450616918438565e-04  1.9133904729857572e-03  3.6626389520684624e-03  9.7790199009042487e-03  3.9428942721633900e-02  9.0521581081273450e-02  1.4138480282085938e-01  1.9570826468319463e-01  2.4640973471809624e-01  2.8718927258446730e-01  3.2844114338119901e-01  3.5094135196657511e-01  3.7614184360657432e-01  3.8404441333588402e-01  3.9234973718607591e-01  4.0325560060492105e-01  3.9312118849008559e-01  3.8399126249618309e-01  3.6071314106684371e-01  3.3174007786034521e-01  2.9532932884896573e-01  2.4256187245003438e-01  1.9294335711177552e-01  1.3702682608173333e-01  8.7576494360849716e-02  4.0741967980375333e-02  1.4512066257205445e-02  7.4172083647484049e-03  6.8082197434760090e-03  2.0100875739746584e-02  3.5982823273566791e-02  3.4462743393618260e-02  3.1571040497010497e-03  1.1644524345872343e-03  1.4646642563332468e-03  2.2358401350014000e-03  7.0233617541054401e-03  4.1768948959094769e-02  9.1740688186302571e-02  1.4228144302513851e-01  2.0065391662953980e-01  2.4458564739501892e-01  2.9305964532437556e-01  3.2463517583051588e-01  3.5369314189516027e-01  3.7548429719645449e-01  3.8363523522494536e-01  3.9285063409356352e-01  4.0677834449033257e-01  3.9855330988056420e-01  3.8812672959279793e-01  3.6506490353178528e-01  3.3796718948346449e-01  3.0031293141585463e-01  2.5408814981694472e-01  2.0525288744994416e-01  1.5738381359450160e-01  1.1342239347584444e-01  7.4783353119485224e-02  5.6759040335033005e-02  5.5034336135542788e-02  5.9215747139542238e-02  6.7174055918214945e-02  7.3471415253662950e-02  7.3877379306254640e-02  6.5086851102686888e-02  6.0406125380999223e-02  5.5734334275296983e-02  5.1519283275991617e-02  5.4332079794312774e-02  7.3878135771940676e-02  1.1453820774564874e-01  1.5948475487088193e-01  2.0833214288910923e-01  2.5377196520672068e-01  2.9423423283428635e-01  3.3187378763532599e-01  3.5633773106793371e-01  3.7876252765219776e-01  3.8752023208901626e-01  3.9520461900906867e-01  4.1324405658685148e-01  4.0326503343950071e-01  3.9610299919959124e-01  3.7217963024234502e-01  3.4636200016029117e-01  3.1183185868421209e-01  2.6866711291675532e-01  2.2664323108801970e-01  1.8194632638854424e-01  1.4708841341251397e-01  1.1210287129973460e-01  9.6976790988102121e-02  9.5027080972123174e-02  9.7525429052988499e-02  1.0111980565528536e-01  1.0536384408722538e-01  1.0740278850978983e-01  1.0531789122050396e-01  1.0157165480204250e-01  9.8917290430825006e-02  9.6053869301347905e-02  9.9412682128788149e-02  1.1574509988058009e-01  1.4637614389726294e-01  1.8109844770495448e-01  2.2885782617379383e-01  2.6624344138270228e-01  3.0640845165733871e-01  3.3770901227434336e-01  3.6288151412728015e-01  3.8478418806449149e-01  3.9097920877186271e-01  4.0076574487317473e-01  4.2081810748520204e-01  4.1210062862653790e-01  4.0297780195951921e-01  3.8256927626300269e-01  3.5532456923122580e-01  3.2434663612358999e-01  2.8342010042024635e-01  2.4836233169429245e-01  2.0957689745969085e-01  1.7943453759195530e-01  1.5008648456399834e-01  1.3106299242766284e-01  1.2742171075665892e-01  1.2574902918410144e-01  1.2872236505109175e-01  1.3259055942165660e-01  1.3530035695875720e-01  1.3474128753369063e-01  1.3345390225170944e-01  1.3108197737881697e-01  1.3315158022944634e-01  1.3752435713997196e-01  1.5479530416308021e-01  1.7857462067999877e-01  2.1212200437127693e-01  2.4948766475533488e-01  2.7943284845227873e-01  3.1592348156715927e-01  3.4805364879582640e-01  3.7227673723478422e-01  3.9055089921269232e-01  3.9919794794194829e-01  4.0741624607519367e-01  4.2937461715870484e-01  4.1972200951380384e-01  4.1309215277598021e-01  3.9400101848771968e-01  3.6971688249871193e-01  3.3834945623634644e-01  3.0147523139673088e-01  2.6721119126981840e-01  2.3565007520169343e-01  2.0741183327024224e-01  1.8376386374911638e-01  1.6522822097913706e-01  1.5731806943113502e-01  1.5357079227198778e-01  1.5295789741329527e-01  1.5761197102275154e-01  1.5833816306926393e-01  1.5857797433817505e-01  1.5603050655290579e-01  1.5911005536376341e-01  1.6326072706324862e-01  1.7276002157799897e-01  1.8805648946208758e-01  2.1044262065895450e-01  2.3833926618152243e-01  2.6657412804193187e-01  2.9685399574612908e-01  3.3347969910075931e-01  3.6165922072337875e-01  3.8225019395484416e-01  3.9983306455169371e-01  4.0602521963769028e-01  4.1575521151361405e-01  4.3938386090808973e-01  4.2878111247950196e-01  4.2168819668683799e-01  4.0584004050592448e-01  3.8261703811443448e-01  3.5614258782568764e-01  3.1974854732912761e-01  2.8876428186550268e-01  2.5834933162754875e-01  2.3569081126068134e-01  2.0984793741390256e-01  1.9369941939448379e-01  1.8534742512004609e-01  1.7631611171349990e-01  1.7385476328908248e-01  1.7420166829750983e-01  1.7716604565127775e-01  1.7488109651799000e-01  1.7553460693227138e-01  1.7935179441310353e-01  1.8992122586763865e-01  1.9931244858396011e-01  2.1407343255094219e-01  2.3896106298077630e-01  2.5927754841778977e-01  2.8820698546740414e-01  3.1793335707792320e-01  3.4829450298000592e-01  3.7362820898793020e-01  3.9395890851233456e-01  4.0797637009478177e-01  4.1606663049133191e-01  4.2502228458222358e-01  4.5028887871232459e-01  4.3824459732851262e-01  4.3128785736296799e-01  4.1555169150037102e-01  3.9694417960241191e-01  3.6854948597529541e-01  3.4047981860179205e-01  3.0812088954622102e-01  2.8003106174746412e-01  2.5888495963952085e-01  2.3787257406156098e-01  2.1743593051719809e-01  2.0758082937849043e-01  1.9857286586309039e-01  1.8996912499230068e-01  1.9148526470485713e-01  1.8998874869269303e-01  1.9281262651422446e-01  1.9153897422271599e-01  2.0272240291829341e-01  2.1184416905809370e-01  2.2292080309915102e-01  2.4191781487252345e-01  2.6184829872388937e-01  2.7998759544492779e-01  3.1024383233006397e-01  3.3529663021354683e-01  3.6218761882511996e-01  3.9029670692413365e-01  4.0273748484680238e-01  4.1813440612378494e-01  4.2509215514305065e-01  4.3568473728042201e-01  4.5866288122896842e-01  4.4860488272798432e-01  4.4033156831664139e-01  4.2759630067960780e-01  4.0855252971688044e-01  3.8754123129564083e-01  3.5634922958516035e-01  3.3341426748336267e-01  2.9975414299036834e-01  2.7985987646426330e-01  2.5901046803798061e-01  2.4168230676312322e-01  2.3027611031060663e-01  2.1788294489118859e-01  2.1072433739567809e-01  2.0751051778011984e-01  2.1053241511363721e-01  2.0986962617347779e-01  2.1670757972193802e-01  2.2463778354947014e-01  2.3832628397458294e-01  2.4924949545483460e-01  2.6702586746145085e-01  2.8365666106310378e-01  3.0441635468010358e-01  3.3556276854229855e-01  3.5363483835034887e-01  3.8537744402003771e-01  4.0080939992405684e-01  4.1422752798091306e-01  4.2790607404875114e-01  4.3701498393186700e-01  4.4410919206661231e-01  4.6510088325129567e-01  4.5966178152815834e-01  4.5251559507053890e-01  4.362573966