<?xml version="1.0"?>
<VTKFile type="UnstructuredGrid"  version="0.1"  >
<UnstructuredGrid>
<Piece  NumberOfPoints="1089" NumberOfCells="2048">
<Points>
<DataArray  type="Float64"  NumberOfComponents="3"  format="ascii">0 0 0  0.03125 0 0  0.0625 0 0  0.09375 0 0  0.125 0 0  0.15625 0 0  0.1875 0 0  0.21875 0 0  0.25 0 0  0.28125 0 0  0.3125 0 0  0.34375 0 0  0.375 0 0  0.40625 0 0  0.4375 0 0  0.46875 0 0  0.5 0 0  0.53125 0 0  0.5625 0 0  0.59375 0 0  0.625 0 0  0.65625 0 0  0.6875 0 0  0.71875 0 0  0.75 0 0  0.78125 0 0  0.8125 0 0  0.84375 0 0  0.875 0 0  0.90625 0 0  0.9375 0 0  0.96875 0 0  1 0 0  0 0.03125 0  0.03125 0.03125 0  0.0625 0.03125 0  0.09375 0.03125 0  0.125 0.03125 0  0.15625 0.03125 0  0.1875 0.03125 0  0.21875 0.03125 0  0.25 0.03125 0  0.28125 0.03125 0  0.3125 0.03125 0  0.34375 0.03125 0  0.375 0.03125 0  0.40625 0.03125 0  0.4375 0.03125 0  0.46875 0.03125 0  0.5 0.03125 0  0.53125 0.03125 0  0.5625 0.03125 0  0.59375 0.03125 0  0.625 0.03125 0  0.65625 0.03125 0  0.6875 0.03125 0  0.71875 0.03125 0  0.75 0.03125 0  0.78125 0.03125 0  0.8125 0.03125 0  0.84375 0.03125 0  0.875 0.03125 0  0.90625 0.03125 0  0.9375 0.03125 0  0.96875 0.03125 0  1 0.03125 0  0 0.0625 0  0.03125 0.0625 0  0.0625 0.0625 0  0.09375 0.0625 0  0.125 0.0625 0  0.15625 0.0625 0  0.1875 0.0625 0  0.21875 0.0625 0  0.25 0.0625 0  0.28125 0.0625 0  0.3125 0.0625 0  0.34375 0.0625 0  0.375 0.0625 0  0.40625 0.0625 0  0.4375 0.0625 0  0.46875 0.0625 0  0.5 0.0625 0  0.53125 0.0625 0  0.5625 0.0625 0  0.59375 0.0625 0  0.625 0.0625 0  0.65625 0.0625 0  0.6875 0.0625 0  0.71875 0.0625 0  0.75 0.0625 0  0.78125 0.0625 0  0.8125 0.0625 0  0.84375 0.0625 0  0.875 0.0625 0  0.90625 0.0625 0  0.9375 0.0625 0  0.96875 0.0625 0  1 0.0625 0  0 0.09375 0  0.03125 0.09375 0  0.0625 0.09375 0  0.09375 0.09375 0  0.125 0.09375 0  0.15625 0.09375 0  0.1875 0.09375 0  0.21875 0.09375 0  0.25 0.09375 0  0.28125 0.09375 0  0.3125 0.09375 0  0.34375 0.09375 0  0.375 0.09375 0  0.40625 0.09375 0  0.4375 0.09375 0  0.46875 0.09375 0  0.5 0.09375 0  0.53125 0.09375 0  0.5625 0.09375 0  0.59375 0.09375 0  0.625 0.09375 0  0.65625 0.09375 0  0.6875 0.09375 0  0.71875 0.09375 0  0.75 0.09375 0  0.78125 0.09375 0  0.8125 0.09375 0  0.84375 0.09375 0  0.875 0.09375 0  0.90625 0.09375 0  0.9375 0.09375 0  0.96875 0.09375 0  1 0.09375 0  0 0.125 0  0.03125 0.125 0  0.0625 0.125 0  0.09375 0.125 0  0.125 0.125 0  0.15625 0.125 0  0.1875 0.125 0  0.21875 0.125 0  0.25 0.125 0  0.28125 0.125 0  0.3125 0.125 0  0.34375 0.125 0  0.375 0.125 0  0.40625 0.125 0  0.4375 0.125 0  0.46875 0.125 0  0.5 0.125 0  0.53125 0.125 0  0.5625 0.125 0  0.59375 0.125 0  0.625 0.125 0  0.65625 0.125 0  0.6875 0.125 0  0.71875 0.125 0  0.75 0.125 0  0.78125 0.125 0  0.8125 0.125 0  0.84375 0.125 0  0.875 0.125 0  0.90625 0.125 0  0.9375 0.125 0  0.96875 0.125 0  1 0.125 0  0 0.15625 0  0.03125 0.15625 0  0.0625 0.15625 0  0.09375 0.15625 0  0.125 0.15625 0  0.15625 0.15625 0  0.1875 0.15625 0  0.21875 0.15625 0  0.25 0.15625 0  0.28125 0.15625 0  0.3125 0.15625 0  0.34375 0.15625 0  0.375 0.15625 0  0.40625 0.15625 0  0.4375 0.15625 0  0.46875 0.15625 0  0.5 0.15625 0  0.53125 0.15625 0  0.5625 0.15625 0  0.59375 0.15625 0  0.625 0.15625 0  0.65625 0.15625 0  0.6875 0.15625 0  0.71875 0.15625 0  0.75 0.15625 0  0.78125 0.15625 0  0.8125 0.15625 0  0.84375 0.15625 0  0.875 0.15625 0  0.90625 0.15625 0  0.9375 0.15625 0  0.96875 0.15625 0  1 0.15625 0  0 0.1875 0  0.03125 0.1875 0  0.0625 0.1875 0  0.09375 0.1875 0  0.125 0.1875 0  0.15625 0.1875 0  0.1875 0.1875 0  0.21875 0.1875 0  0.25 0.1875 0  0.28125 0.1875 0  0.3125 0.1875 0  0.34375 0.1875 0  0.375 0.1875 0  0.40625 0.1875 0  0.4375 0.1875 0  0.46875 0.1875 0  0.5 0.1875 0  0.53125 0.1875 0  0.5625 0.1875 0  0.59375 0.1875 0  0.625 0.1875 0  0.65625 0.1875 0  0.6875 0.1875 0  0.71875 0.1875 0  0.75 0.1875 0  0.78125 0.1875 0  0.8125 0.1875 0  0.84375 0.1875 0  0.875 0.1875 0  0.90625 0.1875 0  0.9375 0.1875 0  0.96875 0.1875 0  1 0.1875 0  0 0.21875 0  0.03125 0.21875 0  0.0625 0.21875 0  0.09375 0.21875 0  0.125 0.21875 0  0.15625 0.21875 0  0.1875 0.21875 0  0.21875 0.21875 0  0.25 0.21875 0  0.28125 0.21875 0  0.3125 0.21875 0  0.34375 0.21875 0  0.375 0.21875 0  0.40625 0.21875 0  0.4375 0.21875 0  0.46875 0.21875 0  0.5 0.21875 0  0.53125 0.21875 0  0.5625 0.21875 0  0.59375 0.21875 0  0.625 0.21875 0  0.65625 0.21875 0  0.6875 0.21875 0  0.71875 0.21875 0  0.75 0.21875 0  0.78125 0.21875 0  0.8125 0.21875 0  0.84375 0.21875 0  0.875 0.21875 0  0.90625 0.21875 0  0.9375 0.21875 0  0.96875 0.21875 0  1 0.21875 0  0 0.25 0  0.03125 0.25 0  0.0625 0.25 0  0.09375 0.25 0  0.125 0.25 0  0.15625 0.25 0  0.1875 0.25 0  0.21875 0.25 0  0.25 0.25 0  0.28125 0.25 0  0.3125 0.25 0  0.34375 0.25 0  0.375 0.25 0  0.40625 0.25 0  0.4375 0.25 0  0.46875 0.25 0  0.5 0.25 0  0.53125 0.25 0  0.5625 0.25 0  0.59375 0.25 0  0.625 0.25 0  0.65625 0.25 0  0.6875 0.25 0  0.71875 0.25 0  0.75 0.25 0  0.78125 0.25 0  0.8125 0.25 0  0.84375 0.25 0  0.875 0.25 0  0.90625 0.25 0  0.9375 0.25 0  0.96875 0.25 0  1 0.25 0  0 0.28125 0  0.03125 0.28125 0  0.0625 0.28125 0  0.09375 0.28125 0  0.125 0.28125 0  0.15625 0.28125 0  0.1875 0.28125 0  0.21875 0.28125 0  0.25 0.28125 0  0.28125 0.28125 0  0.3125 0.28125 0  0.34375 0.28125 0  0.375 0.28125 0  0.40625 0.28125 0  0.4375 0.28125 0  0.46875 0.28125 0  0.5 0.28125 0  0.53125 0.28125 0  0.5625 0.28125 0  0.59375 0.28125 0  0.625 0.28125 0  0.65625 0.28125 0  0.6875 0.28125 0  0.71875 0.28125 0  0.75 0.28125 0  0.78125 0.28125 0  0.8125 0.28125 0  0.84375 0.28125 0  0.875 0.28125 0  0.90625 0.28125 0  0.9375 0.28125 0  0.96875 0.28125 0  1 0.28125 0  0 0.3125 0  0.03125 0.3125 0  0.0625 0.3125 0  0.09375 0.3125 0  0.125 0.3125 0  0.15625 0.3125 0  0.1875 0.3125 0  0.21875 0.3125 0  0.25 0.3125 0  0.28125 0.3125 0  0.3125 0.3125 0  0.34375 0.3125 0  0.375 0.3125 0  0.40625 0.3125 0  0.4375 0.3125 0  0.46875 0.3125 0  0.5 0.3125 0  0.53125 0.3125 0  0.5625 0.3125 0  0.59375 0.3125 0  0.625 0.3125 0  0.65625 0.3125 0  0.6875 0.3125 0  0.71875 0.3125 0  0.75 0.3125 0  0.78125 0.3125 0  0.8125 0.3125 0  0.84375 0.3125 0  0.875 0.3125 0  0.90625 0.3125 0  0.9375 0.3125 0  0.96875 0.3125 0  1 0.3125 0  0 0.34375 0  0.03125 0.34375 0  0.0625 0.34375 0  0.09375 0.34375 0  0.125 0.34375 0  0.15625 0.34375 0  0.1875 0.34375 0  0.21875 0.34375 0  0.25 0.34375 0  0.28125 0.34375 0  0.3125 0.34375 0  0.34375 0.34375 0  0.375 0.34375 0  0.40625 0.34375 0  0.4375 0.34375 0  0.46875 0.34375 0  0.5 0.34375 0  0.53125 0.34375 0  0.5625 0.34375 0  0.59375 0.34375 0  0.625 0.34375 0  0.65625 0.34375 0  0.6875 0.34375 0  0.71875 0.34375 0  0.75 0.34375 0  0.78125 0.34375 0  0.8125 0.34375 0  0.84375 0.34375 0  0.875 0.34375 0  0.90625 0.34375 0  0.9375 0.34375 0  0.96875 0.34375 0  1 0.34375 0  0 0.375 0  0.03125 0.375 0  0.0625 0.375 0  0.09375 0.375 0  0.125 0.375 0  0.15625 0.375 0  0.1875 0.375 0  0.21875 0.375 0  0.25 0.375 0  0.28125 0.375 0  0.3125 0.375 0  0.34375 0.375 0  0.375 0.375 0  0.40625 0.375 0  0.4375 0.375 0  0.46875 0.375 0  0.5 0.375 0  0.53125 0.375 0  0.5625 0.375 0  0.59375 0.375 0  0.625 0.375 0  0.65625 0.375 0  0.6875 0.375 0  0.71875 0.375 0  0.75 0.375 0  0.78125 0.375 0  0.8125 0.375 0  0.84375 0.375 0  0.875 0.375 0  0.90625 0.375 0  0.9375 0.375 0  0.96875 0.375 0  1 0.375 0  0 0.40625 0  0.03125 0.40625 0  0.0625 0.40625 0  0.09375 0.40625 0  0.125 0.40625 0  0.15625 0.40625 0  0.1875 0.40625 0  0.21875 0.40625 0  0.25 0.40625 0  0.28125 0.40625 0  0.3125 0.40625 0  0.34375 0.40625 0  0.375 0.40625 0  0.40625 0.40625 0  0.4375 0.40625 0  0.46875 0.40625 0  0.5 0.40625 0  0.53125 0.40625 0  0.5625 0.40625 0  0.59375 0.40625 0  0.625 0.40625 0  0.65625 0.40625 0  0.6875 0.40625 0  0.71875 0.40625 0  0.75 0.40625 0  0.78125 0.40625 0  0.8125 0.40625 0  0.84375 0.40625 0  0.875 0.40625 0  0.90625 0.40625 0  0.9375 0.40625 0  0.96875 0.40625 0  1 0.40625 0  0 0.4375 0  0.03125 0.4375 0  0.0625 0.4375 0  0.09375 0.4375 0  0.125 0.4375 0  0.15625 0.4375 0  0.1875 0.4375 0  0.21875 0.4375 0  0.25 0.4375 0  0.28125 0.4375 0  0.3125 0.4375 0  0.34375 0.4375 0  0.375 0.4375 0  0.40625 0.4375 0  0.4375 0.4375 0  0.46875 0.4375 0  0.5 0.4375 0  0.53125 0.4375 0  0.5625 0.4375 0  0.59375 0.4375 0  0.625 0.4375 0  0.65625 0.4375 0  0.6875 0.4375 0  0.71875 0.4375 0  0.75 0.4375 0  0.78125 0.4375 0  0.8125 0.4375 0  0.84375 0.4375 0  0.875 0.4375 0  0.90625 0.4375 0  0.9375 0.4375 0  0.96875 0.4375 0  1 0.4375 0  0 0.46875 0  0.03125 0.46875 0  0.0625 0.46875 0  0.09375 0.46875 0  0.125 0.46875 0  0.15625 0.46875 0  0.1875 0.46875 0  0.21875 0.46875 0  0.25 0.46875 0  0.28125 0.46875 0  0.3125 0.46875 0  0.34375 0.46875 0  0.375 0.46875 0  0.40625 0.46875 0  0.4375 0.46875 0  0.46875 0.46875 0  0.5 0.46875 0  0.53125 0.46875 0  0.5625 0.46875 0  0.59375 0.46875 0  0.625 0.46875 0  0.65625 0.46875 0  0.6875 0.46875 0  0.71875 0.46875 0  0.75 0.46875 0  0.78125 0.46875 0  0.8125 0.46875 0  0.84375 0.46875 0  0.875 0.46875 0  0.90625 0.46875 0  0.9375 0.46875 0  0.96875 0.46875 0  1 0.46875 0  0 0.5 0  0.03125 0.5 0  0.0625 0.5 0  0.09375 0.5 0  0.125 0.5 0  0.15625 0.5 0  0.1875 0.5 0  0.21875 0.5 0  0.25 0.5 0  0.28125 0.5 0  0.3125 0.5 0  0.34375 0.5 0  0.375 0.5 0  0.40625 0.5 0  0.4375 0.5 0  0.46875 0.5 0  0.5 0.5 0  0.53125 0.5 0  0.5625 0.5 0  0.59375 0.5 0  0.625 0.5 0  0.65625 0.5 0  0.6875 0.5 0  0.71875 0.5 0  0.75 0.5 0  0.78125 0.5 0  0.8125 0.5 0  0.84375 0.5 0  0.875 0.5 0  0.90625 0.5 0  0.9375 0.5 0  0.96875 0.5 0  1 0.5 0  0 0.53125 0  0.03125 0.53125 0  0.0625 0.53125 0  0.09375 0.53125 0  0.125 0.53125 0  0.15625 0.53125 0  0.1875 0.53125 0  0.21875 0.53125 0  0.25 0.53125 0  0.28125 0.53125 0  0.3125 0.53125 0  0.34375 0.53125 0  0.375 0.53125 0  0.40625 0.53125 0  0.4375 0.53125 0  0.46875 0.53125 0  0.5 0.53125 0  0.53125 0.53125 0  0.5625 0.53125 0  0.59375 0.53125 0  0.625 0.53125 0  0.65625 0.53125 0  0.6875 0.53125 0  0.71875 0.53125 0  0.75 0.53125 0  0.78125 0.531
[...]
<PointData  Scalars="ControlVisualisation"> 
<DataArray  type="Float64"  Name="ControlVisualisation"  format="ascii">5.2614622343101303e-01  5.2190317462165492e-01  5.1659369176346814e-01  5.0468926413461357e-01  4.8960975799100820e-01  4.7134786703197351e-01  4.5116799099369415e-01  4.3035947569392169e-01  4.0918173528008078e-01  3.8855427897010303e-01  3.6991905405532927e-01  3.5401092998082762e-01  3.4075416893398391e-01  3.3058399540296091e-01  3.2339774813558847e-01  3.1941195302095904e-01  3.1863607341468542e-01  3.2099084867145750e-01  3.2663891785683447e-01  3.3551639483641671e-01  3.4747784038257856e-01  3.6239823492460549e-01  3.7989402276864126e-01  3.9989642184466623e-01  4.2162574201167391e-01  4.4348642372251268e-01  4.6447649668709429e-01  4.8456902317386863e-01  5.0250406193547947e-01  5.1684911344988749e-01  5.2744854200665747e-01  5.3200351242212929e-01  5.3491262460335698e-01  5.2401819619714518e-01  5.2611958654502011e-01  5.1452246926578127e-01  5.0525531508450972e-01  4.8896716343522623e-01  4.7045186642415676e-01  4.5036636705657285e-01  4.2862532085461880e-01  4.0718997819629293e-01  3.8663019368545787e-01  3.6784643811533752e-01  3.5103105190732925e-01  3.3798163155844146e-01  3.2747202875354625e-01  3.2006384640821733e-01  3.1610719096954543e-01  3.1528327780468562e-01  3.1779580270533486e-01  3.2338795195068903e-01  3.3266317116986927e-01  3.4480741512968188e-01  3.5977598617344519e-01  3.7803627005434531e-01  3.9824724272329654e-01  4.1995022724183623e-01  4.4202451155540723e-01  4.6398172057830084e-01  4.8395537590493531e-01  5.0204649923286604e-01  5.1755129773021191e-01  5.2612762583282879e-01  5.3605773747204977e-01  5.3374171502994261e-01  5.2477162114270215e-01  5.2076952131959620e-01  5.1482446418123995e-01  5.0273399157604592e-01  4.8748579197158576e-01  4.6905416279418394e-01  4.4741245275820302e-01  4.2614243487353243e-01  4.0408635503228718e-01  3.8301434264996254e-01  3.6369149037649706e-01  3.4775911917350388e-01  3.3374703083597379e-01  3.2297643202834220e-01  3.1630300051516930e-01  3.1185994153493934e-01  3.1112108775335562e-01  3.1349890904676203e-01  3.1962293696608168e-01  3.2801375723058007e-01  3.4060105406538105e-01  3.5608662609285080e-01  3.7387824208382214e-01  3.9437185155792553e-01  4.1650564612919461e-01  4.3924706607975539e-01  4.6077620188730306e-01  4.8212764703665495e-01  5.0013239659065367e-01  5.1446725346334432e-01  5.2567616306144471e-01  5.3153863552838199e-01  5.3425872081691161e-01  5.2267436281791091e-01  5.2156982845989941e-01  5.1258134961072688e-01  5.0181832257436054e-01  4.8588589892169626e-01  4.6515988748487991e-01  4.4455837471325377e-01  4.2130527617216257e-01  3.9820652754526586e-01  3.7759743936443407e-01  3.5804453770027522e-01  3.4064809482207387e-01  3.2689530916659459e-01  3.1678812166160952e-01  3.0886476835655141e-01  3.0512025665436437e-01  3.0420566509116709e-01  3.0670670494595359e-01  3.1226656060043889e-01  3.2161501827732653e-01  3.3374605859189338e-01  3.4902166948462293e-01  3.6787466305931033e-01  3.8906260823450073e-01  4.1046351805265191e-01  4.3431655126998708e-01  4.5762953594914896e-01  4.7824313515658345e-01  4.9822164638045208e-01  5.1318185483412992e-01  5.2300374380597847e-01  5.3166971001429297e-01  5.3215487236721604e-01  5.2050781536942026e-01  5.1843278511295410e-01  5.1033867161285418e-01  4.9905825703005552e-01  4.8142827952029704e-01  4.6216950300013498e-01  4.3855325872125989e-01  4.1512000422815887e-01  3.9182370778907011e-01  3.6961697794875303e-01  3.4926649668263243e-01  3.3256310382301124e-01  3.1832922901255095e-01  3.0707864723966527e-01  3.0028057688035475e-01  2.9646350646318492e-01  2.9477845668066804e-01  2.9801386453407269e-01  3.0331363256218041e-01  3.1207280357471706e-01  3.2450470577613350e-01  3.4092942425873818e-01  3.5872786640374904e-01  3.8072495160777653e-01  4.0403413656062426e-01  4.2768866828198593e-01  4.5149597858110435e-01  4.7461894213375155e-01  4.9351869809592064e-01  5.0990698227881914e-01  5.2022323987008057e-01  5.2789177115471420e-01  5.2922671310586777e-01  5.1742304535546624e-01  5.1522977485318699e-01  5.0750234131557692e-01  4.9415834651674800e-01  4.7815824385140276e-01  4.5464211366474250e-01  4.3144758500721841e-01  4.0697762055933800e-01  3.8116383448514685e-01  3.5998599725405722e-01  3.3986630758500608e-01  3.2146017656389803e-01  3.0806846819708239e-01  2.9742420319757568e-01  2.9113002335050053e-01  2.8637788866722075e-01  2.8623737939557276e-01  2.8779631094587982e-01  2.9370213531463252e-01  3.0170300673417810e-01  3.1395787455441593e-01  3.2890248687441936e-01  3.4908483217999042e-01  3.7008229533520681e-01  3.9300288998620314e-01  4.1921586161082836e-01  4.4368242327386487e-01  4.6684127826031957e-01  4.8920846833837306e-01  5.0429759610275005e-01  5.1633567213469322e-01  5.2376800676300195e-01  5.2496615022197601e-01  5.1377362467833176e-01  5.1214927868426363e-01  5.0232803601525056e-01  4.8998526815379234e-01  4.7031349418698765e-01  4.4692454480310523e-01  4.2300488603488867e-01  3.9561277350776008e-01  3.7093295853657654e-01  3.4875913742277193e-01  3.2543674171419851e-01  3.0954346228690738e-01  2.9522041125077098e-01  2.8504726546633846e-01  2.7830526778084508e-01  2.7506681518642623e-01  2.7373630468047250e-01  2.7595485785847829e-01  2.8094647041394522e-01  2.8832715947602428e-01  3.0049255869279107e-01  3.1593298824589228e-01  3.3405951825841879e-01  3.5826919868728679e-01  3.8138281949624325e-01  4.0724949652471926e-01  4.3434581460336830e-01  4.5815430238404559e-01  4.8085773516762537e-01  4.9883911115050267e-01  5.1012300859449977e-01  5.1936527575779468e-01  5.2011731948738571e-01  5.0991958257151415e-01  5.0781146508295061e-01  4.9823634158393165e-01  4.8342759295678245e-01  4.6329466701617650e-01  4.3898665885758292e-01  4.1173520059103469e-01  3.8421236075770832e-01  3.5725032729647627e-01  3.3176059723095663e-01  3.1165610785125902e-01  2.9383757462756516e-01  2.8010060198327308e-01  2.7048063166251612e-01  2.6547071886545559e-01  2.6213300857759358e-01  2.6035604555697317e-01  2.6335049330934901e-01  2.6714106933396775e-01  2.7414795424202343e-01  2.8433168548153404e-01  2.9980298604830707e-01  3.1891812950408022e-01  3.4112355142535261e-01  3.6703757782071372e-01  3.9480248330830192e-01  4.2226016686501572e-01  4.4892969080250600e-01  4.7263760699105228e-01  4.9135757114841788e-01  5.0458776623708823e-01  5.1372750441559800e-01  5.1495411654041479e-01  5.0559330871978292e-01  5.0295928353734687e-01  4.9219003431495584e-01  4.7553841771805827e-01  4.5537844820618606e-01  4.2705995653342871e-01  3.9943947141845632e-01  3.6917748167772357e-01  3.3902142989365663e-01  3.1630167524879982e-01  2.9238555092877905e-01  2.7478325635201811e-01  2.6250343011276667e-01  2.5391116662233082e-01  2.4977592235560131e-01  2.4547546999118938e-01  2.4691902070818314e-01  2.4616800254406238e-01  2.5113703852296870e-01  2.5655784502168860e-01  2.6692896392184484e-01  2.7994164798242160e-01  2.9933569975177948e-01  3.2452809605251765e-01  3.4857803851619840e-01  3.7906044021307445e-01  4.0930275314556819e-01  4.3604299740617891e-01  4.6327053803955570e-01  4.8214195986141856e-01  4.9728621063296669e-01  5.0744760586912807e-01  5.0903665072024862e-01  5.0048528103511836e-01  4.9809018827669721e-01  4.8540956718685246e-01  4.6932736194012542e-01  4.4600602912482656e-01  4.1594575852963955e-01  3.8654384879545600e-01  3.5146326738606859e-01  3.2245096723502692e-01  2.9400703751444357e-01  2.6925319297289069e-01  2.5409671767828695e-01  2.4105180462255685e-01  2.3477429248198603e-01  2.3080560599368236e-01  2.2901749245830569e-01  2.2704683216805566e-01  2.2878142070060831e-01  2.3192858126296970e-01  2.3557813585225629e-01  2.4483067697263095e-01  2.5899909061013759e-01  2.7549009295591831e-01  3.0212448866797148e-01  3.3112449165324670e-01  3.6074878586637654e-01  3.9519165274941559e-01  4.2413905852672923e-01  4.5246105577744283e-01  4.7413273337498352e-01  4.8882791860809766e-01  5.0095473918914846e-01  5.0221766043152682e-01  4.9552500230191748e-01  4.9255617442603705e-01  4.7926060219983274e-01  4.6194437338874217e-01  4.3541576043085800e-01  4.0476414822500384e-01  3.6972649677472058e-01  3.3391863454849807e-01  2.9922023969191286e-01  2.6821585716036017e-01  2.4519470859047052e-01  2.2807733381387479e-01  2.1786840627415324e-01  2.1361853215799043e-01  2.1001166418293760e-01  2.0919078465424717e-01  2.0845917763455971e-01  2.0966232939778540e-01  2.1005406090257486e-01  2.1487198994352336e-01  2.1979624563418845e-01  2.3338149121417640e-01  2.5145454259146399e-01  2.7620152050377011e-01  3.0795467204447702e-01  3.4259675613894885e-01  3.7765792209124760e-01  4.1130944435885758e-01  4.4091357649350188e-01  4.6500199446198509e-01  4.8081708763693803e-01  4.9353389551177529e-01  4.9546197332890057e-01  4.9102246747535300e-01  4.8723464802562011e-01  4.7365613226604852e-01  4.5328303832109113e-01  4.2668617903615053e-01  3.9087689035022588e-01  3.5393551776266596e-01  3.1327896814265194e-01  2.7358515511435805e-01  2.4114597754362899e-01  2.1522637454383459e-01  1.9889413404247594e-01  1.9107582593562406e-01  1.8704376488012195e-01  1.8692393244576425e-01  1.8673214026461143e-01  1.8801517901883719e-01  1.8646672028634256e-01  1.8756548831293501e-01  1.8792313569587590e-01  1.9320387142849602e-01  2.0356115487926335e-01  2.2249379809727182e-01  2.4980099466042374e-01  2.8280770096094143e-01  3.2156795247481423e-01  3.6110638397953027e-01  3.9629881679435508e-01  4.3010970161921530e-01  4.5490754848503595e-01  4.7315981325136497e-01  4.8626197396874271e-01  4.8893213952399067e-01  4.8694479121185014e-01  4.8299210554376437e-01  4.6796863089560536e-01  4.4691310125104117e-01  4.1722225914040018e-01  3.7853773199472862e-01  3.3843111256148661e-01  2.9084866194784065e-01  2.4729195638277304e-01  2.1015319599452748e-01  1.8082506336211679e-01  1.6491824697146068e-01  1.5765954543308947e-01  1.5837357044513273e-01  1.6056133059469632e-01  1.6485529772709992e-01  1.6391329421242778e-01  1.6360064133888683e-01  1.6368242778647155e-01  1.6056507209443940e-01  1.6261318504113820e-01  1.7149376841506814e-01  1.8965110574964855e-01  2.1994661704357238e-01  2.5730849845416243e-01  2.9957603537839306e-01  3.4454083529086871e-01  3.8278464617992902e-01  4.1900471265264172e-01  4.4629337275186515e-01  4.6547865632293989e-01  4.7979855266845117e-01  4.8264038521662544e-01  4.8360721878456286e-01  4.7948328061593970e-01  4.6302992324239861e-01  4.4114705831798634e-01  4.0849848969098485e-01  3.6808755789730158e-01  3.2189060616801546e-01  2.7010487681018253e-01  2.2088131124313001e-01  1.7569436403092359e-01  1.4137566660408879e-01  1.2247725031421573e-01  1.1851365745612565e-01  1.2313817662180787e-01  1.2938232791728319e-01  1.3739767141487466e-01  1.3535662904408557e-01  1.3956618161521672e-01  1.3174531335004741e-01  1.3214838720962696e-01  1.2735620464059391e-01  1.3468815935768449e-01  1.5447277530834677e-01  1.8865934273477733e-01  2.3116662552529627e-01  2.7872248052259402e-01  3.2761222541566226e-01  3.7073360161219843e-01  4.0857974656166562e-01  4.3853512658937255e-01  4.5827461311235507e-01  4.7400170067669301e-01  4.7694397995048865e-01  4.8119449210512732e-01  4.7641159615764000e-01  4.6015980415602337e-01  4.3633839659141804e-01  4.0280602573973256e-01  3.5865877510641558e-01  3.0981833618835969e-01  2.5287843636288809e-01  1.9586674230983106e-01  1.4186929873757656e-01  9.6825747826722569e-02  7.2110822081010800e-02  6.9906595140959774e-02  7.8865087465392961e-02  9.4450710000131499e-02  1.0290585090923952e-01  1.0489855537982240e-01  1.0595769728574959e-01  9.9833605964896710e-02  9.3366195817789377e-02  8.9411494517386225e-02  9.2828627077684495e-02  1.1568377742630227e-01  1.5737008528866075e-01  2.0768476500474542e-01  2.6027981866074695e-01  3.1434617818488964e-01  3.5999329120834134e-01  4.0102242992518011e-01  4.3158855668041168e-01  4.5322284567800181e-01  4.6863834414013539e-01  4.7217098883046860e-01  4.7973208461824107e-01  4.7506653531670651e-01  4.5807192048174705e-01  4.3370770730946751e-01  3.9886744852217793e-01  3.5351217393202489e-01  3.0104548743298898e-01  2.4085637853934069e-01  1.7854724165336056e-01  1.1430802901149008e-01  5.6558829119485066e-02  1.6260729206935550e-02  7.1511862106542401e-03  2.2195020323976179e-02  4.7383460641715065e-02  6.1367957179975292e-02  6.2670719322984944e-02  6.5955431176424856e-02  5.7088759377310089e-02  5.3626721112498221e-02  4.4924267080309839e-02  4.8643507694712269e-02  7.8197375443985889e-02  1.2875322948321183e-01  1.8841541820916691e-01  2.4755691295122961e-01  3.0378403561374362e-01  3.5325285654813110e-01  3.9527682865114500e-01  4.2714024755246133e-01  4.4894759532219108e-01  4.6518005294203535e-01  4.6849689044635645e-01  4.7963156975878124e-01  4.7485490230262989e-01  4.5756837463149780e-01  4.3320889618854619e-01  3.9773330352328296e-01  3.5081298307226411e-01  2.9925717530560159e-01  2.3634439790272158e-01  1.7267928805914817e-01  1.0578221324078937e-01  4.6915070284589695e-02  9.2945466624616488e-03  3.0578579519879097e-03  1.4835368543952999e-03  1.0223245692827301e-03  1.0081010002081746e-03  1.1705769343914128e-03  1.3404890336288591e-03  1.6745214677794697e-03  2.4367782039770220e-03  4.4295300677871397e-03  1.1373696639581876e-02  5.1041673554342297e-02  1.1143725784464534e-01  1.7792350589302555e-01  2.4032933501859219e-01  3.0050276972910567e-01  3.4891832555460139e-01  3.9263460286133756e-01  4.2478055016442373e-01  4.4672437774520474e-01  4.6299557864623503e-01  4.6647954015769272e-01  4.8081764643792774e-01  4.7611810050422843e-01  4.5906244243799543e-01  4.3458175494669055e-01  3.9968697907884748e-01  3.5423467268747239e-01  3.0176136067764309e-01  2.4172249873163140e-01  1.8039066311096186e-01  1.1863350352362373e-01  6.5364828944181455e-02  3.1508183135014099e-02  2.0405871708904802e-02  1.2852537070554091e-02  3.0868442278015793e-03  1.5572700167254239e-03  1.3873782990981424e-03  1.3051176643700854e-03  1.4226185166399776e-03  1.7598186542009482e-03  2.7517055294337205e-03  7.7962616865348252e-03  5.2464330279248891e-02  1.1541592228040680e-01  1.8127511477234207e-01  2.4329991684002852e-01  3.0154053049460250e-01  3.5096804885666705e-01  3.9315894935669360e-01  4.2483551577102052e-01  4.4663961729018958e-01  4.6271077971589669e-01  4.6608961878280530e-01  4.8332941217275877e-01  4.7846821020928409e-01  4.6206679576740672e-01  4.3806408298193500e-01  4.0433057484648638e-01  3.6006291337558294e-01  3.1104406367886417e-01  2.5411311014017307e-01  1.9747873620471904e-01  1.4465714408734578e-01  1.0045204967190625e-01  7.4067968644453877e-02  6.6053567184312934e-02  6.5356028128838423e-02  6.6949475845234613e-02  6.9724437613288420e-02  7.1075135852401133e-02  7.1147567253394023e-02  6.9309475817529165e-02  6.5772081716575836e-02  6.2803068551979938e-02  6.6285077238482148e-02  9.3993307665103179e-02  1.4172296926917521e-01  1.9820847584012488e-01  2.5534602235827952e-01  3.0965294573871988e-01  3.5582833656196194e-01  3.9692978952526153e-01  4.2722121394668183e-01  4.4853911436508576e-01  4.6385464447275820e-01  4.6743365632190592e-01  4.8667065260756787e-01  4.8245064255852693e-01  4.6577381548410013e-01  4.4366864722116595e-01  4.1071232124399176e-01  3.7011980717508186e-01  3.2359893631205949e-01  2.7150415504681757e-01  2.2177316569528430e-01  1.7603244277656260e-01  1.3999906163237807e-01  1.1844855979659123e-01  1.1063032387789731e-01  1.1101139971657777e-01  1.1344308332229698e-01  1.1741157952743561e-01  1.1965810755840876e-01  1.1965730069863748e-01  1.1765513549663287e-01  1.1572189724798781e-01  1.1454275589924773e-01  1.2080492044436696e-01  1.4080826204384506e-01  1.7788031218338995e-01  2.2433796936085601e-01  2.7216830828657967e-01  3.2186775750766278e-01  3.6551838666858083e-01  4.0258246588332147e-01  4.3219824511561250e-01  4.5150956377559592e-01  4.6702699723542462e-01  4.7003838881944032e-01  4.9073645689733847e-01  4.8667636665059705e-01  4.7146779618473056e-01  4.5013839023479663e-01  4.2015737697477795e-01  3.8110538017711998e-01  3.4064242437923808e-01  2.9247865803028017e-01  2.4804583714262862e-01  2.0949315891415812e-01  1.7820280061282417e-01  1.5983266421174955e-01  1.5109568513211877e-01  1.5051876358222055e-01  1.5279321303794893e-01  1.5537924862978084e-01  1.5744537964865718e-01  1.5784443721919167e-01  1.5762922389079220e-01  1.5714678266213847e-01  1.5821440790214780e-01  1.6666261038386201e-01  1.8384499121924372e-01  2.1469798754479061e-01  2.5122378449286509e-01  2.9379366795517753e-01  3.3910208399068908e-01  3.7611789217206321e-01  4.1192518957345725e-01  4.3828882369580680e-01  4.5678770497647470e-01  4.7082757754124610e-01  4.7379101396482992e-01  4.9528808059658785e-01  4.9142659522231202e-01  4.7768242815690604e-01  4.5711058127089393e-01  4.3025854194781687e-01  3.9416028032507572e-01  3.5674104895823633e-01  3.1545240033868061e-01  2.7487399476087149e-01  2.4111251091957955e-01  2.1378931499238699e-01  1.9593823588763745e-01  1.8687006238037351e-01  1.8337746700065199e-01  1.8425769222035207e-01  1.8567131728966754e-01  1.8643718073144563e-01  1.8814221329497186e-01  1.8874967592803177e-01  1.8991195541148348e-01  1.9476090728682730e-01  2.0379875478587273e-01  2.2140622923564479e-01  2.4712537144326838e-01  2.7910044480700430e-01  3.1733522073359577e-01  3.5511169734697440e-01  3.8945030002787551e-01  4.2188952597622503e-01  4.4511803912297482e-01  4.6295128783609313e-01  4.7552931376454838e-01  4.7838919435312438e-01  4.9998225931838591e-01  4.9705318606065524e-01  4.8367260151596031e-01  4.6629390561278122e-01  4.3958203399427587e-01  4.0879531936404390e-01  3.7352003521695581e-01  3.3708397472460278e-01  3.0178979813818735e-01  2.6989781798132501e-01  2.4584958962288794e-01  2.2858092974266708e-01  2.1777333588183997e-01  2.1387537120168224e-01  2.1204793357933432e-01  2.1160706643367591e-01  2.1321343709821539e-01  2.1364663627973607e-01  2.1626056733371499e-01  2.1983762584095978e-01  2.2518898645359228e-01  2.3656357781725434e-01  2.5354691428567822e-01  2.7620420345329794e-01  3.0644213744402976e-01  3.3885336317713288e-01  3.7210726985842907e-01  4.0400940556801751e-01  4.3118858322355447e-01  4.5444228891538291e-01  4.6911439307387748e-01  4.8132511131781153e-01  4.8345765665180840e-01  5.0490386435066248e-01  5.0269204546252955e-01  4.9002093071349223e-01  4.7404639164643586e-01  4.5072870123026437e-01  4.2058992823682506e-01  3.9128195872191363e-01  3.5602976722254126e-01  3.2649793675685468e-01  2.9803051311378514e-01  2.7272739102121440e-01  2.5774399856750302e-01  2.4542886039250714e-01  2.3883982480698218e-01  2.3696342149793787e-01  2.3608844161952236e-01  2.3485672204106356e-01  2.3801864336203701e-01  2.4078148601516575e-01  2.4444152327001342e-01  2.5227675298735341e-01  2.6529497865506380e-01  2.7977093777991513e-01  3.0431304900091266e-01  3.3072239014873861e-01  3.5777917765256195e-01  3.8983313794663094e-01  4.1590834484279326e-01  4.4261818102237016e-01  4.6249021987750899e-01  4.7572001913221318e-01  4.8741957521713469e-01  4.8895281436432814e-01  5.0978590199282658e-01  5.0735767003334487e-01  4.9684263358997477e-01  4.8041978005517000e-01  4.6064900912585122e-01  4.3245444847351927e-01  4.0511866219328962e-01  3.7508485806472242e-01  3.4513263511047831e-01  3.2238737630450104e-01  2.9898110265891820e-01  2.8163702500353560e-01  2.7067009877618026e-01  2.6290643783555823e-01  2.5896323056014658e-01  2.5669651344773103e-01  2.5777936106979138e-01  2.5838242067897010e-01  2.6223233534860957e-01  2.6769131311981209e-01  2.7670797949497572e-01  2.8801334332137279e-01  3.0548815001418428e-01  3.2782964994329544e-01  3.4889206362314301e-01  3.7661902902698957e-01  4.0351846591067325e-01  4.2787681442491954e-01  4.5269710340689684e-01  4.6906263958259997e-01  4.8320645665657030e-01  4.9271279207913338e-01  4.9455064028895374e-01  5.1353627860439588e-01  5.1182259860744772e-01  5.0266942028588057e-01  4.884663516