<?xml version="1.0"?>
<VTKFile type="UnstructuredGrid"  version="0.1"  >
<UnstructuredGrid>
<Piece  NumberOfPoints="1089" NumberOfCells="2048">
<Points>
<DataArray  type="Float64"  NumberOfComponents="3"  format="ascii">0 0 0  0.03125 0 0  0.0625 0 0  0.09375 0 0  0.125 0 0  0.15625 0 0  0.1875 0 0  0.21875 0 0  0.25 0 0  0.28125 0 0  0.3125 0 0  0.34375 0 0  0.375 0 0  0.40625 0 0  0.4375 0 0  0.46875 0 0  0.5 0 0  0.53125 0 0  0.5625 0 0  0.59375 0 0  0.625 0 0  0.65625 0 0  0.6875 0 0  0.71875 0 0  0.75 0 0  0.78125 0 0  0.8125 0 0  0.84375 0 0  0.875 0 0  0.90625 0 0  0.9375 0 0  0.96875 0 0  1 0 0  0 0.03125 0  0.03125 0.03125 0  0.0625 0.03125 0  0.09375 0.03125 0  0.125 0.03125 0  0.15625 0.03125 0  0.1875 0.03125 0  0.21875 0.03125 0  0.25 0.03125 0  0.28125 0.03125 0  0.3125 0.03125 0  0.34375 0.03125 0  0.375 0.03125 0  0.40625 0.03125 0  0.4375 0.03125 0  0.46875 0.03125 0  0.5 0.03125 0  0.53125 0.03125 0  0.5625 0.03125 0  0.59375 0.03125 0  0.625 0.03125 0  0.65625 0.03125 0  0.6875 0.03125 0  0.71875 0.03125 0  0.75 0.03125 0  0.78125 0.03125 0  0.8125 0.03125 0  0.84375 0.03125 0  0.875 0.03125 0  0.90625 0.03125 0  0.9375 0.03125 0  0.96875 0.03125 0  1 0.03125 0  0 0.0625 0  0.03125 0.0625 0  0.0625 0.0625 0  0.09375 0.0625 0  0.125 0.0625 0  0.15625 0.0625 0  0.1875 0.0625 0  0.21875 0.0625 0  0.25 0.0625 0  0.28125 0.0625 0  0.3125 0.0625 0  0.34375 0.0625 0  0.375 0.0625 0  0.40625 0.0625 0  0.4375 0.0625 0  0.46875 0.0625 0  0.5 0.0625 0  0.53125 0.0625 0  0.5625 0.0625 0  0.59375 0.0625 0  0.625 0.0625 0  0.65625 0.0625 0  0.6875 0.0625 0  0.71875 0.0625 0  0.75 0.0625 0  0.78125 0.0625 0  0.8125 0.0625 0  0.84375 0.0625 0  0.875 0.0625 0  0.90625 0.0625 0  0.9375 0.0625 0  0.96875 0.0625 0  1 0.0625 0  0 0.09375 0  0.03125 0.09375 0  0.0625 0.09375 0  0.09375 0.09375 0  0.125 0.09375 0  0.15625 0.09375 0  0.1875 0.09375 0  0.21875 0.09375 0  0.25 0.09375 0  0.28125 0.09375 0  0.3125 0.09375 0  0.34375 0.09375 0  0.375 0.09375 0  0.40625 0.09375 0  0.4375 0.09375 0  0.46875 0.09375 0  0.5 0.09375 0  0.53125 0.09375 0  0.5625 0.09375 0  0.59375 0.09375 0  0.625 0.09375 0  0.65625 0.09375 0  0.6875 0.09375 0  0.71875 0.09375 0  0.75 0.09375 0  0.78125 0.09375 0  0.8125 0.09375 0  0.84375 0.09375 0  0.875 0.09375 0  0.90625 0.09375 0  0.9375 0.09375 0  0.96875 0.09375 0  1 0.09375 0  0 0.125 0  0.03125 0.125 0  0.0625 0.125 0  0.09375 0.125 0  0.125 0.125 0  0.15625 0.125 0  0.1875 0.125 0  0.21875 0.125 0  0.25 0.125 0  0.28125 0.125 0  0.3125 0.125 0  0.34375 0.125 0  0.375 0.125 0  0.40625 0.125 0  0.4375 0.125 0  0.46875 0.125 0  0.5 0.125 0  0.53125 0.125 0  0.5625 0.125 0  0.59375 0.125 0  0.625 0.125 0  0.65625 0.125 0  0.6875 0.125 0  0.71875 0.125 0  0.75 0.125 0  0.78125 0.125 0  0.8125 0.125 0  0.84375 0.125 0  0.875 0.125 0  0.90625 0.125 0  0.9375 0.125 0  0.96875 0.125 0  1 0.125 0  0 0.15625 0  0.03125 0.15625 0  0.0625 0.15625 0  0.09375 0.15625 0  0.125 0.15625 0  0.15625 0.15625 0  0.1875 0.15625 0  0.21875 0.15625 0  0.25 0.15625 0  0.28125 0.15625 0  0.3125 0.15625 0  0.34375 0.15625 0  0.375 0.15625 0  0.40625 0.15625 0  0.4375 0.15625 0  0.46875 0.15625 0  0.5 0.15625 0  0.53125 0.15625 0  0.5625 0.15625 0  0.59375 0.15625 0  0.625 0.15625 0  0.65625 0.15625 0  0.6875 0.15625 0  0.71875 0.15625 0  0.75 0.15625 0  0.78125 0.15625 0  0.8125 0.15625 0  0.84375 0.15625 0  0.875 0.15625 0  0.90625 0.15625 0  0.9375 0.15625 0  0.96875 0.15625 0  1 0.15625 0  0 0.1875 0  0.03125 0.1875 0  0.0625 0.1875 0  0.09375 0.1875 0  0.125 0.1875 0  0.15625 0.1875 0  0.1875 0.1875 0  0.21875 0.1875 0  0.25 0.1875 0  0.28125 0.1875 0  0.3125 0.1875 0  0.34375 0.1875 0  0.375 0.1875 0  0.40625 0.1875 0  0.4375 0.1875 0  0.46875 0.1875 0  0.5 0.1875 0  0.53125 0.1875 0  0.5625 0.1875 0  0.59375 0.1875 0  0.625 0.1875 0  0.65625 0.1875 0  0.6875 0.1875 0  0.71875 0.1875 0  0.75 0.1875 0  0.78125 0.1875 0  0.8125 0.1875 0  0.84375 0.1875 0  0.875 0.1875 0  0.90625 0.1875 0  0.9375 0.1875 0  0.96875 0.1875 0  1 0.1875 0  0 0.21875 0  0.03125 0.21875 0  0.0625 0.21875 0  0.09375 0.21875 0  0.125 0.21875 0  0.15625 0.21875 0  0.1875 0.21875 0  0.21875 0.21875 0  0.25 0.21875 0  0.28125 0.21875 0  0.3125 0.21875 0  0.34375 0.21875 0  0.375 0.21875 0  0.40625 0.21875 0  0.4375 0.21875 0  0.46875 0.21875 0  0.5 0.21875 0  0.53125 0.21875 0  0.5625 0.21875 0  0.59375 0.21875 0  0.625 0.21875 0  0.65625 0.21875 0  0.6875 0.21875 0  0.71875 0.21875 0  0.75 0.21875 0  0.78125 0.21875 0  0.8125 0.21875 0  0.84375 0.21875 0  0.875 0.21875 0  0.90625 0.21875 0  0.9375 0.21875 0  0.96875 0.21875 0  1 0.21875 0  0 0.25 0  0.03125 0.25 0  0.0625 0.25 0  0.09375 0.25 0  0.125 0.25 0  0.15625 0.25 0  0.1875 0.25 0  0.21875 0.25 0  0.25 0.25 0  0.28125 0.25 0  0.3125 0.25 0  0.34375 0.25 0  0.375 0.25 0  0.40625 0.25 0  0.4375 0.25 0  0.46875 0.25 0  0.5 0.25 0  0.53125 0.25 0  0.5625 0.25 0  0.59375 0.25 0  0.625 0.25 0  0.65625 0.25 0  0.6875 0.25 0  0.71875 0.25 0  0.75 0.25 0  0.78125 0.25 0  0.8125 0.25 0  0.84375 0.25 0  0.875 0.25 0  0.90625 0.25 0  0.9375 0.25 0  0.96875 0.25 0  1 0.25 0  0 0.28125 0  0.03125 0.28125 0  0.0625 0.28125 0  0.09375 0.28125 0  0.125 0.28125 0  0.15625 0.28125 0  0.1875 0.28125 0  0.21875 0.28125 0  0.25 0.28125 0  0.28125 0.28125 0  0.3125 0.28125 0  0.34375 0.28125 0  0.375 0.28125 0  0.40625 0.28125 0  0.4375 0.28125 0  0.46875 0.28125 0  0.5 0.28125 0  0.53125 0.28125 0  0.5625 0.28125 0  0.59375 0.28125 0  0.625 0.28125 0  0.65625 0.28125 0  0.6875 0.28125 0  0.71875 0.28125 0  0.75 0.28125 0  0.78125 0.28125 0  0.8125 0.28125 0  0.84375 0.28125 0  0.875 0.28125 0  0.90625 0.28125 0  0.9375 0.28125 0  0.96875 0.28125 0  1 0.28125 0  0 0.3125 0  0.03125 0.3125 0  0.0625 0.3125 0  0.09375 0.3125 0  0.125 0.3125 0  0.15625 0.3125 0  0.1875 0.3125 0  0.21875 0.3125 0  0.25 0.3125 0  0.28125 0.3125 0  0.3125 0.3125 0  0.34375 0.3125 0  0.375 0.3125 0  0.40625 0.3125 0  0.4375 0.3125 0  0.46875 0.3125 0  0.5 0.3125 0  0.53125 0.3125 0  0.5625 0.3125 0  0.59375 0.3125 0  0.625 0.3125 0  0.65625 0.3125 0  0.6875 0.3125 0  0.71875 0.3125 0  0.75 0.3125 0  0.78125 0.3125 0  0.8125 0.3125 0  0.84375 0.3125 0  0.875 0.3125 0  0.90625 0.3125 0  0.9375 0.3125 0  0.96875 0.3125 0  1 0.3125 0  0 0.34375 0  0.03125 0.34375 0  0.0625 0.34375 0  0.09375 0.34375 0  0.125 0.34375 0  0.15625 0.34375 0  0.1875 0.34375 0  0.21875 0.34375 0  0.25 0.34375 0  0.28125 0.34375 0  0.3125 0.34375 0  0.34375 0.34375 0  0.375 0.34375 0  0.40625 0.34375 0  0.4375 0.34375 0  0.46875 0.34375 0  0.5 0.34375 0  0.53125 0.34375 0  0.5625 0.34375 0  0.59375 0.34375 0  0.625 0.34375 0  0.65625 0.34375 0  0.6875 0.34375 0  0.71875 0.34375 0  0.75 0.34375 0  0.78125 0.34375 0  0.8125 0.34375 0  0.84375 0.34375 0  0.875 0.34375 0  0.90625 0.34375 0  0.9375 0.34375 0  0.96875 0.34375 0  1 0.34375 0  0 0.375 0  0.03125 0.375 0  0.0625 0.375 0  0.09375 0.375 0  0.125 0.375 0  0.15625 0.375 0  0.1875 0.375 0  0.21875 0.375 0  0.25 0.375 0  0.28125 0.375 0  0.3125 0.375 0  0.34375 0.375 0  0.375 0.375 0  0.40625 0.375 0  0.4375 0.375 0  0.46875 0.375 0  0.5 0.375 0  0.53125 0.375 0  0.5625 0.375 0  0.59375 0.375 0  0.625 0.375 0  0.65625 0.375 0  0.6875 0.375 0  0.71875 0.375 0  0.75 0.375 0  0.78125 0.375 0  0.8125 0.375 0  0.84375 0.375 0  0.875 0.375 0  0.90625 0.375 0  0.9375 0.375 0  0.96875 0.375 0  1 0.375 0  0 0.40625 0  0.03125 0.40625 0  0.0625 0.40625 0  0.09375 0.40625 0  0.125 0.40625 0  0.15625 0.40625 0  0.1875 0.40625 0  0.21875 0.40625 0  0.25 0.40625 0  0.28125 0.40625 0  0.3125 0.40625 0  0.34375 0.40625 0  0.375 0.40625 0  0.40625 0.40625 0  0.4375 0.40625 0  0.46875 0.40625 0  0.5 0.40625 0  0.53125 0.40625 0  0.5625 0.40625 0  0.59375 0.40625 0  0.625 0.40625 0  0.65625 0.40625 0  0.6875 0.40625 0  0.71875 0.40625 0  0.75 0.40625 0  0.78125 0.40625 0  0.8125 0.40625 0  0.84375 0.40625 0  0.875 0.40625 0  0.90625 0.40625 0  0.9375 0.40625 0  0.96875 0.40625 0  1 0.40625 0  0 0.4375 0  0.03125 0.4375 0  0.0625 0.4375 0  0.09375 0.4375 0  0.125 0.4375 0  0.15625 0.4375 0  0.1875 0.4375 0  0.21875 0.4375 0  0.25 0.4375 0  0.28125 0.4375 0  0.3125 0.4375 0  0.34375 0.4375 0  0.375 0.4375 0  0.40625 0.4375 0  0.4375 0.4375 0  0.46875 0.4375 0  0.5 0.4375 0  0.53125 0.4375 0  0.5625 0.4375 0  0.59375 0.4375 0  0.625 0.4375 0  0.65625 0.4375 0  0.6875 0.4375 0  0.71875 0.4375 0  0.75 0.4375 0  0.78125 0.4375 0  0.8125 0.4375 0  0.84375 0.4375 0  0.875 0.4375 0  0.90625 0.4375 0  0.9375 0.4375 0  0.96875 0.4375 0  1 0.4375 0  0 0.46875 0  0.03125 0.46875 0  0.0625 0.46875 0  0.09375 0.46875 0  0.125 0.46875 0  0.15625 0.46875 0  0.1875 0.46875 0  0.21875 0.46875 0  0.25 0.46875 0  0.28125 0.46875 0  0.3125 0.46875 0  0.34375 0.46875 0  0.375 0.46875 0  0.40625 0.46875 0  0.4375 0.46875 0  0.46875 0.46875 0  0.5 0.46875 0  0.53125 0.46875 0  0.5625 0.46875 0  0.59375 0.46875 0  0.625 0.46875 0  0.65625 0.46875 0  0.6875 0.46875 0  0.71875 0.46875 0  0.75 0.46875 0  0.78125 0.46875 0  0.8125 0.46875 0  0.84375 0.46875 0  0.875 0.46875 0  0.90625 0.46875 0  0.9375 0.46875 0  0.96875 0.46875 0  1 0.46875 0  0 0.5 0  0.03125 0.5 0  0.0625 0.5 0  0.09375 0.5 0  0.125 0.5 0  0.15625 0.5 0  0.1875 0.5 0  0.21875 0.5 0  0.25 0.5 0  0.28125 0.5 0  0.3125 0.5 0  0.34375 0.5 0  0.375 0.5 0  0.40625 0.5 0  0.4375 0.5 0  0.46875 0.5 0  0.5 0.5 0  0.53125 0.5 0  0.5625 0.5 0  0.59375 0.5 0  0.625 0.5 0  0.65625 0.5 0  0.6875 0.5 0  0.71875 0.5 0  0.75 0.5 0  0.78125 0.5 0  0.8125 0.5 0  0.84375 0.5 0  0.875 0.5 0  0.90625 0.5 0  0.9375 0.5 0  0.96875 0.5 0  1 0.5 0  0 0.53125 0  0.03125 0.53125 0  0.0625 0.53125 0  0.09375 0.53125 0  0.125 0.53125 0  0.15625 0.53125 0  0.1875 0.53125 0  0.21875 0.53125 0  0.25 0.53125 0  0.28125 0.53125 0  0.3125 0.53125 0  0.34375 0.53125 0  0.375 0.53125 0  0.40625 0.53125 0  0.4375 0.53125 0  0.46875 0.53125 0  0.5 0.53125 0  0.53125 0.53125 0  0.5625 0.53125 0  0.59375 0.53125 0  0.625 0.53125 0  0.65625 0.53125 0  0.6875 0.53125 0  0.71875 0.53125 0  0.75 0.53125 0  0.78125 0.531
[...]
<PointData  Scalars="ControlVisualisation"> 
<DataArray  type="Float64"  Name="ControlVisualisation"  format="ascii">5.5107925063857288e-01  5.2976044548007017e-01  5.8264962671874687e-01  5.3841412524423304e-01  5.3760053325993018e-01  5.1220641211760520e-01  4.9234772013887473e-01  4.7013720926914809e-01  4.4532735245850485e-01  4.2336383390067400e-01  4.0685849369930072e-01  3.9622524747930388e-01  3.9105520996992094e-01  3.7705688954333627e-01  3.5956041026346686e-01  3.4255576760761297e-01  3.3240790567408790e-01  3.3115414219864192e-01  3.3866042631464977e-01  3.5056995506496869e-01  3.6319939757806974e-01  3.6947129582355276e-01  3.8339812304592841e-01  4.0431745039002204e-01  4.3194414441200435e-01  4.6048348770812686e-01  4.8257918597322996e-01  5.0520824887145088e-01  5.3321237755950912e-01  5.3913432541825956e-01  5.8607670476691376e-01  5.4320428124534992e-01  5.6674156586208413e-01  5.3189270541765643e-01  6.4559004280852406e-01  4.6323331416987312e-01  5.6524728699783799e-01  5.0962326533255364e-01  5.1790679133975936e-01  4.8352731000414401e-01  4.7321462976383133e-01  4.5457746908379498e-01  4.3245227736396064e-01  4.1098181658002053e-01  4.1376892267411192e-01  3.9972659203269578e-01  3.9001915942207976e-01  3.7633575832430688e-01  3.6424454236852349e-01  3.5525643279838998e-01  3.5269129425101697e-01  3.5713868371367113e-01  3.6496184889148020e-01  3.7189775602657410e-01  3.8638452340777218e-01  3.8662375224620810e-01  4.1193283458667895e-01  4.3664097076704744e-01  4.5791349228872413e-01  4.7181631159404863e-01  5.0438431930379946e-01  5.0237742074481939e-01  5.5578010989391546e-01  4.7495008548711998e-01  6.3393250220770048e-01  5.4602862088119408e-01  5.9277500144266548e-01  4.6775842967833858e-01  6.1720381654697831e-01  5.4854823857249602e-01  5.6463400671452069e-01  5.1528589149964954e-01  5.1518814522678158e-01  4.7916432079658111e-01  4.5432310837273826e-01  4.2649258223169983e-01  4.3145028124001017e-01  3.9394606657283882e-01  3.8694497203672840e-01  3.8223120225974305e-01  3.6474837224170914e-01  3.5800108471185899e-01  3.4359900909146690e-01  3.4944634345017084e-01  3.4517766816691509e-01  3.5883426126128831e-01  3.5993211830346283e-01  3.7018801205278212e-01  4.0456599211282629e-01  4.0605964733485223e-01  4.3719055917212052e-01  4.6174624374663797e-01  4.9674603766060499e-01  5.0264077223753645e-01  5.4921798992453841e-01  5.4220193926713423e-01  6.0698861921410130e-01  4.7931138537465556e-01  5.9763498568503615e-01  5.5828629427896148e-01  5.7879184613779144e-01  5.6120050286219159e-01  5.8065598824036058e-01  5.2906203287179265e-01  5.5102013416894624e-01  5.0911488345727762e-01  4.9944875648660891e-01  4.7291121511060985e-01  4.5798384767249201e-01  4.1134406067645723e-01  4.1380935776982830e-01  3.9986661268396129e-01  3.7637170251516577e-01  3.8370484657522652e-01  3.5851193020377270e-01  3.7578216887864391e-01  3.4761624478613101e-01  3.6706984641167945e-01  3.5351296870803794e-01  3.7480619215401706e-01  3.8382174254248402e-01  3.9133455465005096e-01  4.2946830809225084e-01  4.5135936099257379e-01  4.7798715544245324e-01  4.8769900669231192e-01  5.2655782297509468e-01  5.1366992476414353e-01  5.6258837993691824e-01  5.5574876677256835e-01  5.6904119927379226e-01  5.6325793071859387e-01  5.6827509547716948e-01  5.3552203896773543e-01  5.9610633940098734e-01  5.5194266716220053e-01  5.9168816493334275e-01  5.4271053177606698e-01  5.4519986052132685e-01  5.0552301978703873e-01  4.8035239482189551e-01  4.3505501560220872e-01  4.5454743539579934e-01  4.2470369631936089e-01  3.8839735483776527e-01  4.1730817483513849e-01  3.9085956758818785e-01  4.0468353442847527e-01  3.7340780979651089e-01  3.9533634064923273e-01  3.7560103580593118e-01  3.9071479860315605e-01  3.6540910351070810e-01  3.9919269020605969e-01  4.2382073051675695e-01  4.1669423214031714e-01  4.5163157597222559e-01  4.8224642297646858e-01  5.1915767565665050e-01  5.1776117448906556e-01  5.6427182029924849e-01  5.3529289715222461e-01  5.8166289638982116e-01  5.2897283288114738e-01  5.7012936408176995e-01  5.6047451445657226e-01  5.5946547050238693e-01  5.6960728551199047e-01  6.0018056228508643e-01  5.6723640139380394e-01  5.7024905602122322e-01  5.4162140786596880e-01  5.1646397093960317e-01  4.9415063944878046e-01  4.9000382110342555e-01  4.4542091328853295e-01  4.2177190693540600e-01  4.3068631380698608e-01  4.0881253982290533e-01  4.1349191888263498e-01  4.0751781888615468e-01  4.2067434036778606e-01  3.9899213662297728e-01  3.9039179691854597e-01  3.9439329902677911e-01  3.9435287218239068e-01  3.9937906514225163e-01  4.1951355383700856e-01  4.6160371626401464e-01  4.7316628980548636e-01  4.8447812669120088e-01  5.1440424390685835e-01  5.3935631354620417e-01  5.4143919909387839e-01  5.7276836551744137e-01  5.5668690697866019e-01  5.4728635162547246e-01  5.6198962055195090e-01  5.6469581395830371e-01  5.4936886249569195e-01  6.0655000776567636e-01  5.9791160769002438e-01  6.1214218597488390e-01  5.8794329349133934e-01  5.7222030025081760e-01  5.4526128550253772e-01  5.2989296583923717e-01  4.4656135081388970e-01  4.7021700546082390e-01  4.5487162205716747e-01  4.0954377126271851e-01  4.2684062288016666e-01  4.5204823024949126e-01  4.2691515032357064e-01  4.3126911907602883e-01  4.1781875816244168e-01  4.3130055853010918e-01  3.9344692189654334e-01  3.9284723359929319e-01  4.1083370275420633e-01  4.4549155919990441e-01  4.2009763492199581e-01  5.0299851590736722e-01  5.2035802016315758e-01  5.3697958690446357e-01  5.5379220427948839e-01  5.7929696296360922e-01  5.7146764510586723e-01  5.8566611448215411e-01  5.3833112169873565e-01  5.6676439054285221e-01  5.7667866812833402e-01  5.7199338201902306e-01  6.1038424175618911e-01  6.3317206553212657e-01  6.2506832039068394e-01  6.0278353788001515e-01  5.8935954072559049e-01  5.6949621641233161e-01  4.8904687411397618e-01  5.0903813940506326e-01  4.8809996773725217e-01  4.2458997842908353e-01  4.2841086794076511e-01  4.6666720553043040e-01  4.2766983184342144e-01  4.5168496395499974e-01  4.6830258891331361e-01  4.3373478078228356e-01  4.2404172826781650e-01  4.2387228893581963e-01  4.0223414118318279e-01  4.0276444798780375e-01  4.4546995040905979e-01  4.8429691907957706e-01  4.6064312403393903e-01  5.3930050100877447e-01  5.6257864169959870e-01  5.6566316346435563e-01  5.8998191441565506e-01  6.0247569523418620e-01  5.9122154578410147e-01  5.5802846128688866e-01  5.8108863141914435e-01  5.9491623298003549e-01  5.9322575756149498e-01  6.3951465776671712e-01  6.6964763918067893e-01  6.4399092373683864e-01  6.3525232339984083e-01  6.3929707594892249e-01  5.4366954914621202e-01  5.6028705615713725e-01  4.8517248760200082e-01  4.4029540988328231e-01  4.3348501474204598e-01  4.3521705344651451e-01  4.2777937646876135e-01  4.3390836065756633e-01  4.7497254004710060e-01  4.1058056770261558e-01  4.6699454915759847e-01  4.1000663474892279e-01  4.2761067391099916e-01  3.7318000701798504e-01  4.2156250704507159e-01  4.0813388009393370e-01  4.5684864872800124e-01  5.3753256685527850e-01  5.1137467028913630e-01  6.0290584677984216e-01  6.0268342728897772e-01  6.0729786129917895e-01  6.3525271175076259e-01  6.1698469470540407e-01  5.7872755599003489e-01  5.9963898780389413e-01  6.2241257962154695e-01  6.2112706779409566e-01  6.7387967239814683e-01  7.0013918902969585e-01  6.6092845838551839e-01  7.0231326071386946e-01  6.0073436119862944e-01  5.9202245682552912e-01  5.1127434672876992e-01  4.3356496987527948e-01  4.5307932153056774e-01  4.1963974815716587e-01  4.0215629869895808e-01  4.0482991460450796e-01  4.3838533959868148e-01  4.0429775063263917e-01  4.3581458214132945e-01  4.0550405553753327e-01  3.9646531119542450e-01  3.9599547464305207e-01  3.7622826724021019e-01  3.6838744394848788e-01  4.3613828953365169e-01  3.9641697010870780e-01  4.9858996813363421e-01  5.6857984772906134e-01  5.6952453860222052e-01  6.5884100212270047e-01  6.2831556488492712e-01  6.6450301641663478e-01  6.5013538037952834e-01  6.0403288744458306e-01  6.2729981369416477e-01  6.6135365469259833e-01  6.5295154840255665e-01  7.2575360325755978e-01  7.1850507362167004e-01  7.3892721425293728e-01  6.8599805426438909e-01  6.3626450792992362e-01  5.7142697445233948e-01  4.7183300672482920e-01  4.5343013310290381e-01  4.1791673771190069e-01  3.7597026476195494e-01  3.6180068250006447e-01  3.9525408075116453e-01  3.8664013255705698e-01  3.8243506159439439e-01  3.9113566587911675e-01  3.5675036259341614e-01  3.7579900715221348e-01  3.4109921230108364e-01  3.5247244214972295e-01  3.2691552364281651e-01  3.9479464639326667e-01  4.1987338217837467e-01  4.4008795395036826e-01  5.5689911948794535e-01  6.0996123574303196e-01  6.4984108353168157e-01  6.9422952586320941e-01  6.8487683311811853e-01  6.9896557254766523e-01  6.3710409327719653e-01  6.6703081488413440e-01  7.0682109909184176e-01  7.0738583165417301e-01  7.6087745424336650e-01  7.8340773631952909e-01  7.5416830708838900e-01  7.0974938555632239e-01  6.4120233964634699e-01  5.3250001926998469e-01  4.8276766106570723e-01  3.8993025157453243e-01  3.6785214330957550e-01  3.3219055748221193e-01  3.4565868031807612e-01  3.5388266717656808e-01  3.5633155588017296e-01  3.4091651962397085e-01  3.3257482273923122e-01  3.4602063044779907e-01  3.2743533497368515e-01  3.3124422511738572e-01  3.2181490010545089e-01  3.0077986676154217e-01  3.3351494818792771e-01  3.8115152285839904e-01  4.4936447123561035e-01  5.0380259247001080e-01  6.1822187288354269e-01  6.7652233339782675e-01  7.1567864236564727e-01  7.4159922352936991e-01  7.3527652059718773e-01  6.8998938244919139e-01  7.1523904981467290e-01  7.6098656544537824e-01  7.5517106697533976e-01  8.0374654873999141e-01  8.1925464678871196e-01  7.6799146968941656e-01  7.2522059901986990e-01  6.0299683724481612e-01  5.3524084590921450e-01  4.1266149302735405e-01  3.4510467546255608e-01  3.2879999119086900e-01  2.8847698905484837e-01  2.9521061485926658e-01  2.9291355051688417e-01  2.8006795363964648e-01  2.9037813782653760e-01  3.0550363878806536e-01  2.9933380574724477e-01  3.0632346473276778e-01  2.6438464832580122e-01  2.8390358170626961e-01  2.8206142016344360e-01  2.9425097133126821e-01  3.2830230661840121e-01  4.0512380108921242e-01  5.0577386556540627e-01  5.7105741621716288e-01  6.9079240810219689e-01  7.3202310102093682e-01  7.7927619983594654e-01  7.7605552976398506e-01  7.3873541779145757e-01  7.7123804499213988e-01  8.1010681103473958e-01  7.9443655655259171e-01  8.5648917621885834e-01  8.4551433820976740e-01  8.0228367460558436e-01  7.2026269825957501e-01  6.1156288488196575e-01  5.0315640947065521e-01  3.7943825599236491e-01  3.1716514131126466e-01  2.5288074891854456e-01  2.3632586423859159e-01  2.2276550774019366e-01  2.2893038240664698e-01  2.3648991181047319e-01  2.4217856461141235e-01  3.0333313383615079e-01  2.6210347225483765e-01  2.6554902445488926e-01  2.6842233591063985e-01  2.0039542772967661e-01  2.3141047975451007e-01  2.4803525952044944e-01  2.9380444691260177e-01  3.5970649600223337e-01  4.8798725374000557e-01  5.7796772373068939e-01  6.7807295778991583e-01  7.6240088447250887e-01  8.0527239285018259e-01  8.2715142186223001e-01  7.7802549668394361e-01  8.2191816698657938e-01  8.4503991769531595e-01  8.3733591735596102e-01  8.8179001147225688e-01  8.8190243967072135e-01  8.1677100029600436e-01  7.2765588942781889e-01  6.0888418535056288e-01  4.7643839971181046e-01  3.5778814657472591e-01  2.4205544013639840e-01  1.9868481099328639e-01  1.3192609356295498e-01  1.2653802101671363e-01  1.4040698297272911e-01  2.0085886646415207e-01  2.0148065739197099e-01  2.5190688397335553e-01  1.7125755543417884e-01  2.3382427130330100e-01  1.8951929811840607e-01  1.7086087132999178e-01  1.5352494031785013e-01  1.9308295862724772e-01  2.3744475571939971e-01  3.2969230576206554e-01  4.4417798174169509e-01  5.7888375026927641e-01  6.8345798475146102e-01  7.7130617698864978e-01  8.3929991693037820e-01  8.5127130443632171e-01  8.2051216532112481e-01  8.5802306923023863e-01  8.7066898166760809e-01  8.5412415764243499e-01  9.1133563802660233e-01  8.9357966655550614e-01  8.2878207843272511e-01  7.2603665869878764e-01  6.0411898736783820e-01  4.5135419363302798e-01  3.2685339980858996e-01  2.1431438636760192e-01  1.0045338141735385e-01  3.2945113616468062e-02  1.3406950978471714e-02  1.2525912609090238e-02  5.6432523729411037e-02  1.3551594273464840e-01  1.5702851841936571e-01  5.2839026623154012e-02  1.5562420559069609e-01  9.9480550710526514e-02  8.6712520309762856e-02  4.4748829738743411e-02  1.1987117041193376e-01  1.8444935651986033e-01  3.0925745453131054e-01  4.1198463961920140e-01  5.6232179518015424e-01  6.7884038559775151e-01  7.8283100617498369e-01  8.4693206474416305e-01  8.8080675624339755e-01  8.3679117501217992e-01  8.8470007820930552e-01  8.7950360752265877e-01  8.7126699178977485e-01  9.1040505447732978e-01  9.1207556579949256e-01  8.1966043214767070e-01  7.4784183541321403e-01  5.7027555544308983e-01  4.8318253284300222e-01  2.9228585716430666e-01  2.1369292892620229e-01  6.7412332513764245e-02  1.8708310044371904e-02  5.9623144801055662e-03  2.5964094142140980e-03  1.6116561304376008e-03  1.3702307198201202e-03  1.6205603337101423e-03  1.8777909188371236e-03  2.2931478134312917e-03  3.3572203133940613e-03  6.0732821995474248e-03  1.5597408004788909e-02  2.2663047639666700e-02  1.7185124841937405e-01  2.5245783385709342e-01  4.4324989170056150e-01  5.2607152458701234e-01  6.9558080687000001e-01  7.7079717336899778e-01  8.6547730629902564e-01  8.7954639578106453e-01  8.5503042378965599e-01  8.9470769650398330e-01  8.7696316374149952e-01  8.5970062779097867e-01  9.1641456125891596e-01  8.9914459927426105e-01  8.3219220282368567e-01  7.2714452016641096e-01  6.0064985813971172e-01  4.4421854852182285e-01  3.2073952518410898e-01  2.0828689407090217e-01  1.1458543672515450e-01  4.8125465742694808e-02  2.9063021521420311e-02  2.2408233755558345e-02  9.1486522008261441e-03  2.6030390774162753e-03  2.1138508463814667e-03  1.9985067081751259e-03  2.0607667261926294e-03  2.5005310323272354e-03  3.8638268470778964e-03  8.5289917337204521e-03  1.2562568288913830e-02  1.5714057971692424e-01  2.7685722380441741e-01  4.0215242913142957e-01  5.5546859800914850e-01  6.7576811423841632e-01  7.8105472075166527e-01  8.5306115918688730e-01  8.8631226361018689e-01  8.4606250236778469e-01  8.9396472253551607e-01  8.5630150044749831e-01  8.4732942692070123e-01  8.9188715490843529e-01  8.9150604917867615e-01  8.2449802896195679e-01  7.3008431760624504e-01  6.0639577723758709e-01  4.6454253057196182e-01  3.4477234267126772e-01  2.2804624418146871e-01  1.8921767597269878e-01  1.2746238217484734e-01  1.2769827772414011e-01  1.3244952436714957e-01  1.3036601679158008e-01  1.4299913414632720e-01  1.5040442858724196e-01  1.4559057135119297e-01  1.3580996609055740e-01  1.3944305076575814e-01  1.3272438246516285e-01  1.0017069564481459e-01  1.5189410074239276e-01  1.8205550381638486e-01  3.1656198542983871e-01  4.2833280842587262e-01  5.5667118178533204e-01  6.7849719834312205e-01  7.7645720223264503e-01  8.4725032276057122e-01  8.6569070589241626e-01  8.3634932208166557e-01  8.7572245039338337e-01  8.2415656609455823e-01  8.0653987674382144e-01  8.6949954476595437e-01  8.5850303313499121e-01  8.1367364389678021e-01  7.2366864927493846e-01  6.0819432936484574e-01  4.9091485045338573e-01  3.6059386017871714e-01  2.9972840301022452e-01  2.3301306312929146e-01  2.2086379698305353e-01  2.1720658358855138e-01  2.3615184413795912e-01  2.5519379364651873e-01  2.5175218430113122e-01  2.7076943943089737e-01  2.5174177637608486e-01  2.6145908155555514e-01  2.3899313668405198e-01  2.2354925396210279e-01  2.2019387573220958e-01  2.0839602263257168e-01  2.8883416771468506e-01  3.3431811139477213e-01  4.4565507440359686e-01  5.7091206947440676e-01  6.7791391858011396e-01  7.6861869659360649e-01  8.1837408466404704e-01  8.4718153065678270e-01  7.9971610409843319e-01  8.4595042608542692e-01  7.7456699564111609e-01  7.6790239415243366e-01  8.1675276331394198e-01  8.3358603762624839e-01  7.8179307975392287e-01  7.3474143374780920e-01  6.0170626553584539e-01  5.2397336759572788e-01  3.9180455124943714e-01  3.2214610597487581e-01  3.0880748706811334e-01  2.6891664971115203e-01  2.8708973802513915e-01  3.0072428851586241e-01  3.0562981917973775e-01  3.2926495778160092e-01  3.1427803412137845e-01  3.2893442389726918e-01  2.9713067900454476e-01  2.9699098937307511e-01  2.8474858124136249e-01  2.5184226453268038e-01  2.9806626725585711e-01  3.0571524579587450e-01  3.5408247355361522e-01  5.0152461783518176e-01  5.6518162015924922e-01  6.8749852322202565e-01  7.4106017292526261e-01  7.9963517871400258e-01  7.9992758000988495e-01  7.6502991360682926e-01  7.9860309523604833e-01  7.1714995089332501e-01  7.1774872480583629e-01  7.7397409602074529e-01  7.9730752927667647e-01  7.6834924750645683e-01  7.2019845326613230e-01  6.4726288440104418e-01  5.2581822773200160e-01  4.6773508483130388e-01  3.6479384494219569e-01  3.4617571622480692e-01  3.1742544953616880e-01  3.3275777672165374e-01  3.5251187629852043e-01  3.7003472472772214e-01  3.7027809205337336e-01  3.8417253710783339e-01  3.6155255174669226e-01  3.6586516130728747e-01  3.3623940023402632e-01  3.1919763677888058e-01  2.9259491428715295e-01  3.3586685543299161e-01  3.3016789846833211e-01  4.5104456154861244e-01  4.9702174433333429e-01  6.0315053638999971e-01  6.8358433241750083e-01  7.3579236282040050e-01  7.6952787300189707e-01  7.5972884036873556e-01  7.1751419079936407e-01  7.4336248274405903e-01  6.6728966976043513e-01  6.5885242906611796e-01  7.3482887134449615e-01  7.2995394846717487e-01  7.5180343793114324e-01  6.9588073109246684e-01  6.4026987838071614e-01  5.6980127785484891e-01  4.5727693796215929e-01  4.3969166880850913e-01  3.9057145636980772e-01  3.5711294663991200e-01  3.5962487917052577e-01  3.8292331487774722e-01  3.8334247979400438e-01  3.9673841370547341e-01  3.8622019539590197e-01  3.8821149486887524e-01  3.6623040470795937e-01  3.6436723495992496e-01  3.3358827551163872e-01  3.3979577517667114e-01  3.6037359139510594e-01  4.1383230347513705e-01  4.3707532820572459e-01  5.3230638731457114e-01  6.1580248935319037e-01  6.6877148659783703e-01  7.2412742383993756e-01  7.0569815969894234e-01  7.2654003261345534e-01  6.6252026898403427e-01  6.9315681409972774e-01  6.2294726623509167e-01  6.2196236783920744e-01  6.7834512960172999e-01  7.0665127314202580e-01  6.6896363663158964e-01  7.1250422340997477e-01  6.0527690551959745e-01  5.9205636727810562e-01  5.0151360629832076e-01  4.1440231175172626e-01  4.4624188977585444e-01  3.8938549819042551e-01  3.8796547952665583e-01  4.1682889503163639e-01  4.1462608646295224e-01  4.0621221377465222e-01  4.3347709754597430e-01  3.9534557765426243e-01  3.9336104705666097e-01  3.9333271965271210e-01  3.5971106973637340e-01  3.6450429017038988e-01  4.1395125631060359e-01  3.9495083318425439e-01  4.7580253257331895e-01  5.7277650907818534e-01  5.8760977734041919e-01  6.8517098473611171e-01  6.4503580865816246e-01  6.9105008112297783e-01  6.7206865561512419e-01  6.2469105337884190e-01  6.4778228464136611e-01  5.8918667657576274e-01  5.8722128370402316e-01  6.3636329510658218e-01  6.7187734371314622e-01  6.4478406775265718e-01  6.3926099733461883e-01  6.4322410793402995e-01  5.4419691206963661e-01  5.5856981086908597e-01  4.7160184850040421e-01  4.2567317339754940e-01  4.3227305491289814e-01  4.0611778454252406e-01  4.2453234293314557e-01  4.4380009319776959e-01  4.5690694240370883e-01  4.2404764447886389e-01  4.4837168057655796e-01  4.2728456233484469e-01  4.0379865303158657e-01  3.8485393242285021e-01  4.1053373642864732e-01  4.0332730351310386e-01  4.5507458460929373e-01  5.4251238298746218e-01  5.3056942992527001e-01  6.2508985702238595e-01  6.1694337211482653e-01  6.3148006683830693e-01  6.5749226964803986e-01  6.3050502882858406e-01  5.9134708101861366e-01  6.1021622927033736e-01  5.6144108057382758e-01  5.5660218940396700e-01  5.9887973588484300e-01  6.247071344