<?xml version="1.0"?>
<VTKFile type="UnstructuredGrid"  version="0.1"  >
<UnstructuredGrid>
<Piece  NumberOfPoints="1089" NumberOfCells="2048">
<Points>
<DataArray  type="Float64"  NumberOfComponents="3"  format="ascii">0 0 0  0.03125 0 0  0.0625 0 0  0.09375 0 0  0.125 0 0  0.15625 0 0  0.1875 0 0  0.21875 0 0  0.25 0 0  0.28125 0 0  0.3125 0 0  0.34375 0 0  0.375 0 0  0.40625 0 0  0.4375 0 0  0.46875 0 0  0.5 0 0  0.53125 0 0  0.5625 0 0  0.59375 0 0  0.625 0 0  0.65625 0 0  0.6875 0 0  0.71875 0 0  0.75 0 0  0.78125 0 0  0.8125 0 0  0.84375 0 0  0.875 0 0  0.90625 0 0  0.9375 0 0  0.96875 0 0  1 0 0  0 0.03125 0  0.03125 0.03125 0  0.0625 0.03125 0  0.09375 0.03125 0  0.125 0.03125 0  0.15625 0.03125 0  0.1875 0.03125 0  0.21875 0.03125 0  0.25 0.03125 0  0.28125 0.03125 0  0.3125 0.03125 0  0.34375 0.03125 0  0.375 0.03125 0  0.40625 0.03125 0  0.4375 0.03125 0  0.46875 0.03125 0  0.5 0.03125 0  0.53125 0.03125 0  0.5625 0.03125 0  0.59375 0.03125 0  0.625 0.03125 0  0.65625 0.03125 0  0.6875 0.03125 0  0.71875 0.03125 0  0.75 0.03125 0  0.78125 0.03125 0  0.8125 0.03125 0  0.84375 0.03125 0  0.875 0.03125 0  0.90625 0.03125 0  0.9375 0.03125 0  0.96875 0.03125 0  1 0.03125 0  0 0.0625 0  0.03125 0.0625 0  0.0625 0.0625 0  0.09375 0.0625 0  0.125 0.0625 0  0.15625 0.0625 0  0.1875 0.0625 0  0.21875 0.0625 0  0.25 0.0625 0  0.28125 0.0625 0  0.3125 0.0625 0  0.34375 0.0625 0  0.375 0.0625 0  0.40625 0.0625 0  0.4375 0.0625 0  0.46875 0.0625 0  0.5 0.0625 0  0.53125 0.0625 0  0.5625 0.0625 0  0.59375 0.0625 0  0.625 0.0625 0  0.65625 0.0625 0  0.6875 0.0625 0  0.71875 0.0625 0  0.75 0.0625 0  0.78125 0.0625 0  0.8125 0.0625 0  0.84375 0.0625 0  0.875 0.0625 0  0.90625 0.0625 0  0.9375 0.0625 0  0.96875 0.0625 0  1 0.0625 0  0 0.09375 0  0.03125 0.09375 0  0.0625 0.09375 0  0.09375 0.09375 0  0.125 0.09375 0  0.15625 0.09375 0  0.1875 0.09375 0  0.21875 0.09375 0  0.25 0.09375 0  0.28125 0.09375 0  0.3125 0.09375 0  0.34375 0.09375 0  0.375 0.09375 0  0.40625 0.09375 0  0.4375 0.09375 0  0.46875 0.09375 0  0.5 0.09375 0  0.53125 0.09375 0  0.5625 0.09375 0  0.59375 0.09375 0  0.625 0.09375 0  0.65625 0.09375 0  0.6875 0.09375 0  0.71875 0.09375 0  0.75 0.09375 0  0.78125 0.09375 0  0.8125 0.09375 0  0.84375 0.09375 0  0.875 0.09375 0  0.90625 0.09375 0  0.9375 0.09375 0  0.96875 0.09375 0  1 0.09375 0  0 0.125 0  0.03125 0.125 0  0.0625 0.125 0  0.09375 0.125 0  0.125 0.125 0  0.15625 0.125 0  0.1875 0.125 0  0.21875 0.125 0  0.25 0.125 0  0.28125 0.125 0  0.3125 0.125 0  0.34375 0.125 0  0.375 0.125 0  0.40625 0.125 0  0.4375 0.125 0  0.46875 0.125 0  0.5 0.125 0  0.53125 0.125 0  0.5625 0.125 0  0.59375 0.125 0  0.625 0.125 0  0.65625 0.125 0  0.6875 0.125 0  0.71875 0.125 0  0.75 0.125 0  0.78125 0.125 0  0.8125 0.125 0  0.84375 0.125 0  0.875 0.125 0  0.90625 0.125 0  0.9375 0.125 0  0.96875 0.125 0  1 0.125 0  0 0.15625 0  0.03125 0.15625 0  0.0625 0.15625 0  0.09375 0.15625 0  0.125 0.15625 0  0.15625 0.15625 0  0.1875 0.15625 0  0.21875 0.15625 0  0.25 0.15625 0  0.28125 0.15625 0  0.3125 0.15625 0  0.34375 0.15625 0  0.375 0.15625 0  0.40625 0.15625 0  0.4375 0.15625 0  0.46875 0.15625 0  0.5 0.15625 0  0.53125 0.15625 0  0.5625 0.15625 0  0.59375 0.15625 0  0.625 0.15625 0  0.65625 0.15625 0  0.6875 0.15625 0  0.71875 0.15625 0  0.75 0.15625 0  0.78125 0.15625 0  0.8125 0.15625 0  0.84375 0.15625 0  0.875 0.15625 0  0.90625 0.15625 0  0.9375 0.15625 0  0.96875 0.15625 0  1 0.15625 0  0 0.1875 0  0.03125 0.1875 0  0.0625 0.1875 0  0.09375 0.1875 0  0.125 0.1875 0  0.15625 0.1875 0  0.1875 0.1875 0  0.21875 0.1875 0  0.25 0.1875 0  0.28125 0.1875 0  0.3125 0.1875 0  0.34375 0.1875 0  0.375 0.1875 0  0.40625 0.1875 0  0.4375 0.1875 0  0.46875 0.1875 0  0.5 0.1875 0  0.53125 0.1875 0  0.5625 0.1875 0  0.59375 0.1875 0  0.625 0.1875 0  0.65625 0.1875 0  0.6875 0.1875 0  0.71875 0.1875 0  0.75 0.1875 0  0.78125 0.1875 0  0.8125 0.1875 0  0.84375 0.1875 0  0.875 0.1875 0  0.90625 0.1875 0  0.9375 0.1875 0  0.96875 0.1875 0  1 0.1875 0  0 0.21875 0  0.03125 0.21875 0  0.0625 0.21875 0  0.09375 0.21875 0  0.125 0.21875 0  0.15625 0.21875 0  0.1875 0.21875 0  0.21875 0.21875 0  0.25 0.21875 0  0.28125 0.21875 0  0.3125 0.21875 0  0.34375 0.21875 0  0.375 0.21875 0  0.40625 0.21875 0  0.4375 0.21875 0  0.46875 0.21875 0  0.5 0.21875 0  0.53125 0.21875 0  0.5625 0.21875 0  0.59375 0.21875 0  0.625 0.21875 0  0.65625 0.21875 0  0.6875 0.21875 0  0.71875 0.21875 0  0.75 0.21875 0  0.78125 0.21875 0  0.8125 0.21875 0  0.84375 0.21875 0  0.875 0.21875 0  0.90625 0.21875 0  0.9375 0.21875 0  0.96875 0.21875 0  1 0.21875 0  0 0.25 0  0.03125 0.25 0  0.0625 0.25 0  0.09375 0.25 0  0.125 0.25 0  0.15625 0.25 0  0.1875 0.25 0  0.21875 0.25 0  0.25 0.25 0  0.28125 0.25 0  0.3125 0.25 0  0.34375 0.25 0  0.375 0.25 0  0.40625 0.25 0  0.4375 0.25 0  0.46875 0.25 0  0.5 0.25 0  0.53125 0.25 0  0.5625 0.25 0  0.59375 0.25 0  0.625 0.25 0  0.65625 0.25 0  0.6875 0.25 0  0.71875 0.25 0  0.75 0.25 0  0.78125 0.25 0  0.8125 0.25 0  0.84375 0.25 0  0.875 0.25 0  0.90625 0.25 0  0.9375 0.25 0  0.96875 0.25 0  1 0.25 0  0 0.28125 0  0.03125 0.28125 0  0.0625 0.28125 0  0.09375 0.28125 0  0.125 0.28125 0  0.15625 0.28125 0  0.1875 0.28125 0  0.21875 0.28125 0  0.25 0.28125 0  0.28125 0.28125 0  0.3125 0.28125 0  0.34375 0.28125 0  0.375 0.28125 0  0.40625 0.28125 0  0.4375 0.28125 0  0.46875 0.28125 0  0.5 0.28125 0  0.53125 0.28125 0  0.5625 0.28125 0  0.59375 0.28125 0  0.625 0.28125 0  0.65625 0.28125 0  0.6875 0.28125 0  0.71875 0.28125 0  0.75 0.28125 0  0.78125 0.28125 0  0.8125 0.28125 0  0.84375 0.28125 0  0.875 0.28125 0  0.90625 0.28125 0  0.9375 0.28125 0  0.96875 0.28125 0  1 0.28125 0  0 0.3125 0  0.03125 0.3125 0  0.0625 0.3125 0  0.09375 0.3125 0  0.125 0.3125 0  0.15625 0.3125 0  0.1875 0.3125 0  0.21875 0.3125 0  0.25 0.3125 0  0.28125 0.3125 0  0.3125 0.3125 0  0.34375 0.3125 0  0.375 0.3125 0  0.40625 0.3125 0  0.4375 0.3125 0  0.46875 0.3125 0  0.5 0.3125 0  0.53125 0.3125 0  0.5625 0.3125 0  0.59375 0.3125 0  0.625 0.3125 0  0.65625 0.3125 0  0.6875 0.3125 0  0.71875 0.3125 0  0.75 0.3125 0  0.78125 0.3125 0  0.8125 0.3125 0  0.84375 0.3125 0  0.875 0.3125 0  0.90625 0.3125 0  0.9375 0.3125 0  0.96875 0.3125 0  1 0.3125 0  0 0.34375 0  0.03125 0.34375 0  0.0625 0.34375 0  0.09375 0.34375 0  0.125 0.34375 0  0.15625 0.34375 0  0.1875 0.34375 0  0.21875 0.34375 0  0.25 0.34375 0  0.28125 0.34375 0  0.3125 0.34375 0  0.34375 0.34375 0  0.375 0.34375 0  0.40625 0.34375 0  0.4375 0.34375 0  0.46875 0.34375 0  0.5 0.34375 0  0.53125 0.34375 0  0.5625 0.34375 0  0.59375 0.34375 0  0.625 0.34375 0  0.65625 0.34375 0  0.6875 0.34375 0  0.71875 0.34375 0  0.75 0.34375 0  0.78125 0.34375 0  0.8125 0.34375 0  0.84375 0.34375 0  0.875 0.34375 0  0.90625 0.34375 0  0.9375 0.34375 0  0.96875 0.34375 0  1 0.34375 0  0 0.375 0  0.03125 0.375 0  0.0625 0.375 0  0.09375 0.375 0  0.125 0.375 0  0.15625 0.375 0  0.1875 0.375 0  0.21875 0.375 0  0.25 0.375 0  0.28125 0.375 0  0.3125 0.375 0  0.34375 0.375 0  0.375 0.375 0  0.40625 0.375 0  0.4375 0.375 0  0.46875 0.375 0  0.5 0.375 0  0.53125 0.375 0  0.5625 0.375 0  0.59375 0.375 0  0.625 0.375 0  0.65625 0.375 0  0.6875 0.375 0  0.71875 0.375 0  0.75 0.375 0  0.78125 0.375 0  0.8125 0.375 0  0.84375 0.375 0  0.875 0.375 0  0.90625 0.375 0  0.9375 0.375 0  0.96875 0.375 0  1 0.375 0  0 0.40625 0  0.03125 0.40625 0  0.0625 0.40625 0  0.09375 0.40625 0  0.125 0.40625 0  0.15625 0.40625 0  0.1875 0.40625 0  0.21875 0.40625 0  0.25 0.40625 0  0.28125 0.40625 0  0.3125 0.40625 0  0.34375 0.40625 0  0.375 0.40625 0  0.40625 0.40625 0  0.4375 0.40625 0  0.46875 0.40625 0  0.5 0.40625 0  0.53125 0.40625 0  0.5625 0.40625 0  0.59375 0.40625 0  0.625 0.40625 0  0.65625 0.40625 0  0.6875 0.40625 0  0.71875 0.40625 0  0.75 0.40625 0  0.78125 0.40625 0  0.8125 0.40625 0  0.84375 0.40625 0  0.875 0.40625 0  0.90625 0.40625 0  0.9375 0.40625 0  0.96875 0.40625 0  1 0.40625 0  0 0.4375 0  0.03125 0.4375 0  0.0625 0.4375 0  0.09375 0.4375 0  0.125 0.4375 0  0.15625 0.4375 0  0.1875 0.4375 0  0.21875 0.4375 0  0.25 0.4375 0  0.28125 0.4375 0  0.3125 0.4375 0  0.34375 0.4375 0  0.375 0.4375 0  0.40625 0.4375 0  0.4375 0.4375 0  0.46875 0.4375 0  0.5 0.4375 0  0.53125 0.4375 0  0.5625 0.4375 0  0.59375 0.4375 0  0.625 0.4375 0  0.65625 0.4375 0  0.6875 0.4375 0  0.71875 0.4375 0  0.75 0.4375 0  0.78125 0.4375 0  0.8125 0.4375 0  0.84375 0.4375 0  0.875 0.4375 0  0.90625 0.4375 0  0.9375 0.4375 0  0.96875 0.4375 0  1 0.4375 0  0 0.46875 0  0.03125 0.46875 0  0.0625 0.46875 0  0.09375 0.46875 0  0.125 0.46875 0  0.15625 0.46875 0  0.1875 0.46875 0  0.21875 0.46875 0  0.25 0.46875 0  0.28125 0.46875 0  0.3125 0.46875 0  0.34375 0.46875 0  0.375 0.46875 0  0.40625 0.46875 0  0.4375 0.46875 0  0.46875 0.46875 0  0.5 0.46875 0  0.53125 0.46875 0  0.5625 0.46875 0  0.59375 0.46875 0  0.625 0.46875 0  0.65625 0.46875 0  0.6875 0.46875 0  0.71875 0.46875 0  0.75 0.46875 0  0.78125 0.46875 0  0.8125 0.46875 0  0.84375 0.46875 0  0.875 0.46875 0  0.90625 0.46875 0  0.9375 0.46875 0  0.96875 0.46875 0  1 0.46875 0  0 0.5 0  0.03125 0.5 0  0.0625 0.5 0  0.09375 0.5 0  0.125 0.5 0  0.15625 0.5 0  0.1875 0.5 0  0.21875 0.5 0  0.25 0.5 0  0.28125 0.5 0  0.3125 0.5 0  0.34375 0.5 0  0.375 0.5 0  0.40625 0.5 0  0.4375 0.5 0  0.46875 0.5 0  0.5 0.5 0  0.53125 0.5 0  0.5625 0.5 0  0.59375 0.5 0  0.625 0.5 0  0.65625 0.5 0  0.6875 0.5 0  0.71875 0.5 0  0.75 0.5 0  0.78125 0.5 0  0.8125 0.5 0  0.84375 0.5 0  0.875 0.5 0  0.90625 0.5 0  0.9375 0.5 0  0.96875 0.5 0  1 0.5 0  0 0.53125 0  0.03125 0.53125 0  0.0625 0.53125 0  0.09375 0.53125 0  0.125 0.53125 0  0.15625 0.53125 0  0.1875 0.53125 0  0.21875 0.53125 0  0.25 0.53125 0  0.28125 0.53125 0  0.3125 0.53125 0  0.34375 0.53125 0  0.375 0.53125 0  0.40625 0.53125 0  0.4375 0.53125 0  0.46875 0.53125 0  0.5 0.53125 0  0.53125 0.53125 0  0.5625 0.53125 0  0.59375 0.53125 0  0.625 0.53125 0  0.65625 0.53125 0  0.6875 0.53125 0  0.71875 0.53125 0  0.75 0.53125 0  0.78125 0.531
[...]
<PointData  Scalars="ControlVisualisation"> 
<DataArray  type="Float64"  Name="ControlVisualisation"  format="ascii">5.1491351961211262e-01  4.9610924817505742e-01  5.1319507227564276e-01  4.8481520607319856e-01  4.7410803587552108e-01  4.4961369448880151e-01  4.2974908855300320e-01  4.1001409782056136e-01  3.8778095685656577e-01  3.6586637251408843e-01  3.4773218306969805e-01  3.3381848947386245e-01  3.2268471992663683e-01  3.0699809698364361e-01  2.8972536285958639e-01  2.7480422023843565e-01  2.6799294214629032e-01  2.7133144397824110e-01  2.8388250172975249e-01  3.0083207753756497e-01  3.1814476237480521e-01  3.3188992212966456e-01  3.4926366327043473e-01  3.7130683047206792e-01  3.9736002275678461e-01  4.2207274347245544e-01  4.4159937971538632e-01  4.6196577243872528e-01  4.8750688216113319e-01  4.9999677495122424e-01  5.2846041292201673e-01  5.1597324524806187e-01  5.3595497204306120e-01  4.9774676919336991e-01  5.4918346658877637e-01  4.5846993520371354e-01  4.9806245188400133e-01  4.5903911141811199e-01  4.5020158295013629e-01  4.2535359394228833e-01  4.0888943050947646e-01  3.8936330299422778e-01  3.6812926073565244e-01  3.4711505389196412e-01  3.3875115018982938e-01  3.2283673687278058e-01  3.0918307582130067e-01  2.9443958913784773e-01  2.8312141883751951e-01  2.7720758540195328e-01  2.7953710874283189e-01  2.8932480087513529e-01  3.0350377711396193e-01  3.1807886524443463e-01  3.3626086463421068e-01  3.4803225098800272e-01  3.7254695043762481e-01  3.9637922503314649e-01  4.1788795439298881e-01  4.3568513280888166e-01  4.5970366926089828e-01  4.7100125137694959e-01  5.0814293498498719e-01  4.7766797998041249e-01  5.5769791152937420e-01  5.1783246999029264e-01  5.1967138209653108e-01  4.6171511361707979e-01  5.1781822744707717e-01  4.7547030972614385e-01  4.7626149736172751e-01  4.4751696367148841e-01  4.3263672925752744e-01  4.0699842454612323e-01  3.8518253684709913e-01  3.6224726985793315e-01  3.5440293528866096e-01  3.2629267816435686e-01  3.1413376594501380e-01  3.0297015094126339e-01  2.8721510376360349e-01  2.7885409194869648e-01  2.7095809221424538e-01  2.7666763139689809e-01  2.8175806031700007e-01  2.9780387248391954e-01  3.0940976524243646e-01  3.2513117689858251e-01  3.5364544512498214e-01  3.6623471201107183e-01  3.9195036422271301e-01  4.1435434371994823e-01  4.3982237349263814e-01  4.5644903851018376e-01  4.8420695781491507e-01  4.8775303909399936e-01  5.2690448940238310e-01  4.8078824941457432e-01  5.3519608851407041e-01  4.9674614193140904e-01  5.0655316065001332e-01  4.8249808184892351e-01  4.9341209906632849e-01  4.6023757873864618e-01  4.5449196997553037e-01  4.2650726531598526e-01  4.1014248280983218e-01  3.8712216612233663e-01  3.7124709863977828e-01  3.3816911611300882e-01  3.2859505403056022e-01  3.1252788657881542e-01  2.9268244847130864e-01  2.8918595709213701e-01  2.7384678482882563e-01  2.8086093081830271e-01  2.7027930912928111e-01  2.8470244526532784e-01  2.8722657819965225e-01  3.0805863499753927e-01  3.2386604391746610e-01  3.4013568976976244e-01  3.7095037247000712e-01  3.9138767909422334e-01  4.1504415611483714e-01  4.3127908283825783e-01  4.5850410145071613e-01  4.6707425937617458e-01  4.9934722774989737e-01  4.9452468937449345e-01  5.1604617683053555e-01  5.1299215830303124e-01  4.9198073392688141e-01  4.7410381197440388e-01  4.9239597974742516e-01  4.7090800681924327e-01  4.6964429766503224e-01  4.4860966354099763e-01  4.3591465345753655e-01  4.0678929026292010e-01  3.8547660776758119e-01  3.5481607400901499e-01  3.5262388421638358e-01  3.2599686196872824e-01  2.9976110084264262e-01  3.0483126448077102e-01  2.8649799817645644e-01  2.8927126545690374e-01  2.7397690474979308e-01  2.8627325240864321e-01  2.8219166125895395e-01  2.9695606358707810e-01  2.9569235542265410e-01  3.2272337347309732e-01  3.4878484411784472e-01  3.5864807892804207e-01  3.8581058031234666e-01  4.1035438394904689e-01  4.3800495403597683e-01  4.5082296621191070e-01  4.7192626556748912e-01  4.7711988553804491e-01  4.9985775879535893e-01  4.8560512491790819e-01  5.0699048713488093e-01  4.7589886907314277e-01  4.7365691325022835e-01  4.7549500819528967e-01  4.7937118878601137e-01  4.6244641102488226e-01  4.5783305079016196e-01  4.2779902808369441e-01  4.0541642770814917e-01  3.8353089649627092e-01  3.7346204150210549e-01  3.4006650391804394e-01  3.1676519530484148e-01  3.1201570069054202e-01  2.9350153093107145e-01  2.8954375485915512e-01  2.8524676807542543e-01  2.9058637708180229e-01  2.8227256696817016e-01  2.8121691961861273e-01  2.9066806606506818e-01  3.0068801759273489e-01  3.1430680129661781e-01  3.3788212904148507e-01  3.7172130576174300e-01  3.8691268101572540e-01  4.0441360458552372e-01  4.2886417935468690e-01  4.5665975161809902e-01  4.6314436903640821e-01  4.8100350092878813e-01  4.8278096905119722e-01  4.8266347505213436e-01  4.9090858852155500e-01  4.6747401722826470e-01  4.6132640451832657e-01  4.7929899155817668e-01  4.7259265504273940e-01  4.7325405283124855e-01  4.5432631321635353e-01  4.3225784637760528e-01  4.1119573928781283e-01  3.9496936135049748e-01  3.4795166145050177e-01  3.4609858269867766e-01  3.2564988839676834e-01  2.9638372402347213e-01  2.9611816119943685e-01  3.0493438737006823e-01  2.9086779994892464e-01  2.9240143170681293e-01  2.8751655882072646e-01  2.9690055649297931e-01  2.8415615921150433e-01  2.9355241820035743e-01  3.1238078448532630e-01  3.4444963344045260e-01  3.4706987114520721e-01  3.9509320616721766e-01  4.1320124085846105e-01  4.2938950163357076e-01  4.5171128928274407e-01  4.7064276703701968e-01  4.7349147788960222e-01  4.8334346817611146e-01  4.7055203722395883e-01  4.8319679967728651e-01  4.6497085817151212e-01  4.6267188912006163e-01  4.7491693980693478e-01  4.8129876099475055e-01  4.7387768186488055e-01  4.5682413808231398e-01  4.3709425683480396e-01  4.1954367415955374e-01  3.6893796902607257e-01  3.6949350261230129e-01  3.4475355620344017e-01  3.0382490681266361e-01  2.9736999265475272e-01  3.0839818126926433e-01  2.8589926300866592e-01  2.9584412476777039e-01  3.0389491927608392e-01  2.8778565169189674e-01  2.8535044710492824e-01  2.9072690171720517e-01  2.8952606408454284e-01  2.9925689779374648e-01  3.3392200737316974e-01  3.6936396803724530e-01  3.6853209990675018e-01  4.1858919861772587e-01  4.3734225434428264e-01  4.5186917960841799e-01  4.6935519449986562e-01  4.7946622435831987e-01  4.7862190041688218e-01  4.7026273547259789e-01  4.8155130942068397e-01  4.6599281937431603e-01  4.6579602879319659e-01  4.8230093469236712e-01  4.9353845059312995e-01  4.8007308914792501e-01  4.6737149013464857e-01  4.5673179098147998e-01  3.9950978087880917e-01  3.9443677115192488e-01  3.5010517574179834e-01  3.1554327479557076e-01  3.0000083117707288e-01  2.9173082817434631e-01  2.8134921376684885e-01  2.8187502399789477e-01  2.9937495663714536e-01  2.6745454282980707e-01  2.9589767546886453e-01  2.7042845672419891e-01  2.8250501735224443e-01  2.6628187592427388e-01  2.9941871128156494e-01  3.0782484823649081e-01  3.4739554962791341e-01  3.9619600029290303e-01  3.9788934270500032e-01  4.5207296466871516e-01  4.6367233577091349e-01  4.7341947022327369e-01  4.8860946913239112e-01  4.8302903930422159e-01  4.7176990885217773e-01  4.8146503942919949e-01  4.7187207482961341e-01  4.7327572822696518e-01  4.9410768765814783e-01  5.0618045982450133e-01  4.8561240416517037e-01  4.9685834782099758e-01  4.3539925140854707e-01  4.1759211995349937e-01  3.6477236479830855e-01  3.1791034256752615e-01  3.1069793721306227e-01  2.8125806004579540e-01  2.6644124641843048e-01  2.6254512005389730e-01  2.7290672949263162e-01  2.5177163818000281e-01  2.6897587505383869e-01  2.5261880507029011e-01  2.5313097896586390e-01  2.5663587607072053e-01  2.5585085479450437e-01  2.6138063825523555e-01  3.0932956778820908e-01  3.1029387067208625e-01  3.7013480636643459e-01  4.1884779155654539e-01  4.3254600521463743e-01  4.8686029577249912e-01  4.7926404815003432e-01  4.9857987768650480e-01  4.9216667550373122e-01  4.7600033919003748e-01  4.8543301803450079e-01  4.8480298155329443e-01  4.8412876678065581e-01  5.1655411346163604e-01  5.1334981698428805e-01  5.2121786613647358e-01  4.8687325381465940e-01  4.4864153373301568e-01  3.9900287326671935e-01  3.3510207774271017e-01  3.1466175410115227e-01  2.8279045769478917e-01  2.5477232011935991e-01  2.4364831328420539e-01  2.5014978917025710e-01  2.3793475174144935e-01  2.3599502573041170e-01  2.3849764298911030e-01  2.2031644911732684e-01  2.3451229412412777e-01  2.2056504470864480e-01  2.3698511016506155e-01  2.3278680135270308e-01  2.7576649641689405e-01  3.0787946266684596e-01  3.3183183036587671e-01  4.0371022842774001e-01  4.4665218103082960e-01  4.7901390919107467e-01  5.0744137962772229e-01  5.0462826645994840e-01  5.1067412446468108e-01  4.8503297468647477e-01  4.9642616739089362e-01  5.0365466171501139e-01  5.0759361648917212e-01  5.3095414313899036e-01  5.4253086687418528e-01  5.2530759992092357e-01  4.9469183039734926e-01  4.4199527066358024e-01  3.6838222017745886e-01  3.2844269289844463e-01  2.7498258117293695e-01  2.5370842385495784e-01  2.3062169385441289e-01  2.2819243576332315e-01  2.2339701563686426e-01  2.2043408186620922e-01  2.1627437012560874e-01  2.0064383277544820e-01  2.1535699761496827e-01  2.0254635112617764e-01  2.1239997778071484e-01  2.1109496210702194e-01  2.1574189221281398e-01  2.3831771301971888e-01  2.7603175673336211e-01  3.2302483256352565e-01  3.6661018707286042e-01  4.4077343302281380e-01  4.8639915843027098e-01  5.1246346151774314e-01  5.2780343295029064e-01  5.2325405233911892e-01  5.0524243603216967e-01  5.1411918259111011e-01  5.2823610894715212e-01  5.2915430030919552e-01  5.5147375449894165e-01  5.5894826531735897e-01  5.3132290042459829e-01  4.9797537894999672e-01  4.1546968598696293e-01  3.6046470414465437e-01  2.8604309255702032e-01  2.4404331519225236e-01  2.2556924873547707e-01  1.9687888756694100e-01  1.9377822440796505e-01  1.8783576200349467e-01  1.8084850181922571e-01  1.8217189951062096e-01  1.8709699868608515e-01  1.9307509447588372e-01  1.8841101323481937e-01  1.7718177813716673e-01  1.8536538121737262e-01  1.9354479184327134e-01  2.1241530900017008e-01  2.3975214635200021e-01  2.8977201202308234e-01  3.5626067206038325e-01  4.0946778264202932e-01  4.8763563429246870e-01  5.1734145172198798e-01  5.4253268509777708e-01  5.4018230620751373e-01  5.2468953708839672e-01  5.3704390264995550e-01  5.5095127378047803e-01  5.4746858521590069e-01  5.7651700004026774e-01  5.7127651251565914e-01  5.4609401715877248e-01  4.9068595432960438e-01  4.1171798725433506e-01  3.3590192621177928e-01  2.5768005432554980e-01  2.1751397481554391e-01  1.7283073667710874e-01  1.5958475198573346e-01  1.4635205050827299e-01  1.4645938631104316e-01  1.4995431968181336e-01  1.5299492379497279e-01  1.8874816634229907e-01  1.6701636378378143e-01  1.6351331882785580e-01  1.7006526477717465e-01  1.3912638413997705e-01  1.5728740613362469e-01  1.7596370516835735e-01  2.1252778932256317e-01  2.5541006767394248e-01  3.3611951842773513e-01  4.0266337762934434e-01  4.7538672933588738e-01  5.2822759397160324e-01  5.5230381491184666e-01  5.6172999282077007e-01  5.4036491863721237e-01  5.5784039257890305e-01  5.6694739324993693e-01  5.6727058252948848e-01  5.8873524398289079e-01  5.8776833022088348e-01  5.5169162401930638e-01  4.8916405591949114e-01  4.0390457656179068e-01  3.1313199707639283e-01  2.3694430452694581e-01  1.6670580594064052e-01  1.3458701136085913e-01  9.1106447001487845e-02  8.4161019494134764e-02  8.9360501969077494e-02  1.2556944704079892e-01  1.2692335709533054e-01  1.5392766148436154e-01  1.1108720944248367e-01  1.4127619740293196e-01  1.1665124651367140e-01  1.1195572829507450e-01  1.0765295589475797e-01  1.3554133232263957e-01  1.7113352473217178e-01  2.3095928793634807e-01  3.0477673805451011e-01  3.9426450433978910e-01  4.7063749315069742e-01  5.2910518431581721e-01  5.6528654856166627e-01  5.7079300613587591e-01  5.5732144137489847e-01  5.7172799098941984e-01  5.7837586132937813e-01  5.7533454555010910e-01  6.0276092297739081e-01  5.9411267311672522e-01  5.5643243372099538e-01  4.8644352266859869e-01  3.9748252016664010e-01  2.9545890278617781e-01  2.1409095058079197e-01  1.4427600443594024e-01  7.2933257867989237e-02  2.2824500778180462e-02  8.2760739453450853e-03  7.6397609095024636e-03  5.8103382675839581e-02  8.2621404797675477e-02  9.3993803145872662e-02  3.7364597818706456e-02  9.1536636417367909e-02  6.2729161569806791e-02  5.5524875759216302e-02  3.8605930438144802e-02  8.7610238341281343e-02  1.3239537044265315e-01  2.1024904618840490e-01  2.8211753552527263e-01  3.8061181611224471e-01  4.6413848941432589e-01  5.3130017991995593e-01  5.6738998129788298e-01  5.8235737018555511e-01  5.6270120542727664e-01  5.8127745814728315e-01  5.8270910660683972e-01  5.8373897472904446e-01  6.0332677107810295e-01  6.0355801281140453e-01  5.5278332466478419e-01  4.9688519304571488e-01  3.7976954087931258e-01  3.0861314247175042e-01  1.9375811054193243e-01  1.4018768201146797e-01  5.3526977694051570e-02  1.1618338108221573e-02  3.6279654402247077e-03  1.5867289567708851e-03  9.8295432325897544e-04  8.3355327463742988e-04  9.8395214657054603e-04  1.1452016748895308e-03  1.4025187080286606e-03  2.0622606034739499e-03  3.7423624243613511e-03  1.0171089507045664e-02  3.1788347153307174e-02  1.2017413970760063e-01  1.7580138725643396e-01  2.9208385004298343e-01  3.5948662346233096e-01  4.6991398684030183e-01  5.2412034935899399e-01  5.7474507595979496e-01  5.8071948749157509e-01  5.6961044430387142e-01  5.8427464834809018e-01  5.8278050967707418e-01  5.7957359027047195e-01  6.0699395569098769e-01  5.9871506802706431e-01  5.5999994515771778e-01  4.8865509286347442e-01  3.9695661362449836e-01  2.9277722092262631e-01  2.1132417533948905e-01  1.4191204655367071e-01  8.1263957472104201e-02  3.2963260761339624e-02  1.7785751020599344e-02  1.3750989936106760e-02  5.6730570603031865e-03  1.6054678706328945e-03  1.2874187580389559e-03  1.2204095264916753e-03  1.2650370692791667e-03  1.5331526518347982e-03  2.3936227982057435e-03  5.8336834216335589e-03  2.6157330830752959e-02  1.1460376416578810e-01  1.8891434974309188e-01  2.7232619286761883e-01  3.7383909518093938e-01  4.6008335867690320e-01  5.2845388949601513e-01  5.6864959722130215e-01  5.8317952617186131e-01  5.6526128142573806e-01  5.8388578137881653e-01  5.7483133799816999e-01  5.7491223436805527e-01  5.9693080882730121e-01  5.9607516109444991e-01  5.5926017066505862e-01  4.9388587226313302e-01  4.0514898359037510e-01  3.0887151270812041e-01  2.3130541214381511e-01  1.6083498585105621e-01  1.3142257008792591e-01  9.0458741190283493e-02  8.3983326074912379e-02  8.2888362392174633e-02  8.1046611031407340e-02  8.7367314022488568e-02  9.1183318797352531e-02  8.8836676345778021e-02  8.4173075113694651e-02  8.6583876046727154e-02  8.6967707598130467e-02  7.3179760981451514e-02  1.1007681401876312e-01  1.3368844918390022e-01  2.1521096610786461e-01  2.9005278481794244e-01  3.7842483767811608e-01  4.6352924308103965e-01  5.2789671410408290e-01  5.6579371608162821e-01  5.7418253262023833e-01  5.6103960418323062e-01  5.7642801685190581e-01  5.6074984814804762e-01  5.5696774266349580e-01  5.8729285589237024e-01  5.8270493381225630e-01  5.5714829698838786e-01  4.9803147184190999e-01  4.1475816073630345e-01  3.3330893893652652e-01  2.5040155216817939e-01  2.1028868799224754e-01  1.6481331706650137e-01  1.5392508238534025e-01  1.4360540681908623e-01  1.4769856719506222e-01  1.5484301572607032e-01  1.5282798801464179e-01  1.6271949878693659e-01  1.5314276434873939e-01  1.5868221364709698e-01  1.5068011956096625e-01  1.4647784241560002e-01  1.5335810953808798e-01  1.4919196612155919e-01  2.0142715860302424e-01  2.3612969229356631e-01  3.0911664270375683e-01  3.9227159918127474e-01  4.6935769265845406e-01  5.2673908793446733e-01  5.5419649188110398e-01  5.6615086383803481e-01  5.4492574821957529e-01  5.6344719997870896e-01  5.3788526844685780e-01  5.3929675272636346e-01  5.6292712147124380e-01  5.7215373682910231e-01  5.4494485806962034e-01  5.1003129703276839e-01  4.2171285677971038e-01  3.6085600283103458e-01  2.8058622628923802e-01  2.3638473886849737e-01  2.1907860817356029e-01  1.9009626456186968e-01  1.9282383137611914e-01  1.9397974390323167e-01  1.9170010722274589e-01  2.0203329101825351e-01  1.9571495990173665e-01  2.0241021175704441e-01  1.8807682775970846e-01  1.9300527583242516e-01  1.9102086512635352e-01  1.8085646145667073e-01  2.1034671282758730e-01  2.2606542440262728e-01  2.5944643269383516e-01  3.4599332991127324e-01  3.9948253256447153e-01  4.8099996601451100e-01  5.1698754453975526e-01  5.4691459575283119e-01  5.4494089968577608e-01  5.2953029642447169e-01  5.4212891816012432e-01  5.1157492941859117e-01  5.1665409130453555e-01  5.4272836679217284e-01  5.5623478539461246e-01  5.4031362888761658e-01  5.0892178498638607e-01  4.5396935279386885e-01  3.7331678665699630e-01  3.2829253399692315e-01  2.6887582055922737e-01  2.4873275885795154e-01  2.2799359238297850e-01  2.2524644205747796e-01  2.2731116769629414e-01  2.3235587859318271e-01  2.2955046978675292e-01  2.3350374564133991e-01  2.2472563616002061e-01  2.2918481530103973e-01  2.1752065881540006e-01  2.1685161331121877e-01  2.1236442812896550e-01  2.3936728053635647e-01  2.4835906769864413e-01  3.1587328595282732e-01  3.5638788322278714e-01  4.2905818590914485e-01  4.8529304938286244e-01  5.1698898790716730e-01  5.3497079389628488e-01  5.2690614877795761e-01  5.0891859202879908e-01  5.1760021081534013e-01  4.9061947494511027e-01  4.9117332525516333e-01  5.2663921826947568e-01  5.2628066527273987e-01  5.3644751721223871e-01  5.0214401712494672e-01  4.6185307298651623e-01  4.0906592466339309e-01  3.3806837543016871e-01  3.1612760424027797e-01  2.7650879657989103e-01  2.5169568315816992e-01  2.4632831671380767e-01  2.4655808200912382e-01  2.4108612730869594e-01  2.4493251042475978e-01  2.3652950745892190e-01  2.3908761946066767e-01  2.2986647435372559e-01  2.3371985640057860e-01  2.2937608871024640e-01  2.3778755877859412e-01  2.5743542750336751e-01  2.9944430486826834e-01  3.2525348102139318e-01  3.8925843049303643e-01  4.4638202766724339e-01  4.8388528785680246e-01  5.1693546560848880e-01  5.0781673274917749e-01  5.1467659858265136e-01  4.8602498691540813e-01  4.9718748648868516e-01  4.7559176150342153e-01  4.7817144414666812e-01  5.0205872146926422e-01  5.1674043252707658e-01  4.9865636493349652e-01  5.1271933483726562e-01  4.4990216907593306e-01  4.3029224760707918e-01  3.7274900742160177e-01  3.2026934712389377e-01  3.1587900552688458e-01  2.7428349943641162e-01  2.6484867452235000e-01  2.7040341860642370e-01  2.6317258268150107e-01  2.5500767402505364e-01  2.6678817958560019e-01  2.4822097657287551e-01  2.5020737094954038e-01  2.5536350419557852e-01  2.4687794909178032e-01  2.5771591103510960e-01  2.9677093882753952e-01  3.0731097688700798e-01  3.5870530547136281e-01  4.1943791336890257e-01  4.3844366131007961e-01  4.9614978382278818e-01  4.8234415832193767e-01  5.0353473941203120e-01  4.9210352467079488e-01  4.7324822607687456e-01  4.8201297244463692e-01  4.6734722286038854e-01  4.6779369304346674e-01  4.8676858179261068e-01  5.0190898519787719e-01  4.8959745028475921e-01  4.8019602517911031e-01  4.7144140688894687e-01  4.1345439130605488e-01  4.0741938251116067e-01  3.5782816604322520e-01  3.2045208816799553e-01  3.0869850858153763e-01  2.8600079319266591e-01  2.8467774028136517e-01  2.8917895540816330e-01  2.9292149245364224e-01  2.7504532826744110e-01  2.8767143054926014e-01  2.7906164994581728e-01  2.7176988364910198e-01  2.7202582963552280e-01  2.9472585496793413e-01  3.0641443242020583e-01  3.4727987501409352e-01  3.9881082339168605e-01  4.0549612494753196e-01  4.6112416861254546e-01  4.6713819293183084e-01  4.7912804984705493e-01  4.9013384627032641e-01  4.7782610352852861e-01  4.6395714703858493e-01  4.7216199813261817e-01  4.6222794211957097e-01  4.6049096828234198e-01  4.7546299639736406e-01  4.844605941