<?xml version="1.0"?>
<VTKFile type="UnstructuredGrid"  version="0.1"  >
<UnstructuredGrid>
<Piece  NumberOfPoints="1089" NumberOfCells="2048">
<Points>
<DataArray  type="Float64"  NumberOfComponents="3"  format="ascii">0 0 0  0.03125 0 0  0.0625 0 0  0.09375 0 0  0.125 0 0  0.15625 0 0  0.1875 0 0  0.21875 0 0  0.25 0 0  0.28125 0 0  0.3125 0 0  0.34375 0 0  0.375 0 0  0.40625 0 0  0.4375 0 0  0.46875 0 0  0.5 0 0  0.53125 0 0  0.5625 0 0  0.59375 0 0  0.625 0 0  0.65625 0 0  0.6875 0 0  0.71875 0 0  0.75 0 0  0.78125 0 0  0.8125 0 0  0.84375 0 0  0.875 0 0  0.90625 0 0  0.9375 0 0  0.96875 0 0  1 0 0  0 0.03125 0  0.03125 0.03125 0  0.0625 0.03125 0  0.09375 0.03125 0  0.125 0.03125 0  0.15625 0.03125 0  0.1875 0.03125 0  0.21875 0.03125 0  0.25 0.03125 0  0.28125 0.03125 0  0.3125 0.03125 0  0.34375 0.03125 0  0.375 0.03125 0  0.40625 0.03125 0  0.4375 0.03125 0  0.46875 0.03125 0  0.5 0.03125 0  0.53125 0.03125 0  0.5625 0.03125 0  0.59375 0.03125 0  0.625 0.03125 0  0.65625 0.03125 0  0.6875 0.03125 0  0.71875 0.03125 0  0.75 0.03125 0  0.78125 0.03125 0  0.8125 0.03125 0  0.84375 0.03125 0  0.875 0.03125 0  0.90625 0.03125 0  0.9375 0.03125 0  0.96875 0.03125 0  1 0.03125 0  0 0.0625 0  0.03125 0.0625 0  0.0625 0.0625 0  0.09375 0.0625 0  0.125 0.0625 0  0.15625 0.0625 0  0.1875 0.0625 0  0.21875 0.0625 0  0.25 0.0625 0  0.28125 0.0625 0  0.3125 0.0625 0  0.34375 0.0625 0  0.375 0.0625 0  0.40625 0.0625 0  0.4375 0.0625 0  0.46875 0.0625 0  0.5 0.0625 0  0.53125 0.0625 0  0.5625 0.0625 0  0.59375 0.0625 0  0.625 0.0625 0  0.65625 0.0625 0  0.6875 0.0625 0  0.71875 0.0625 0  0.75 0.0625 0  0.78125 0.0625 0  0.8125 0.0625 0  0.84375 0.0625 0  0.875 0.0625 0  0.90625 0.0625 0  0.9375 0.0625 0  0.96875 0.0625 0  1 0.0625 0  0 0.09375 0  0.03125 0.09375 0  0.0625 0.09375 0  0.09375 0.09375 0  0.125 0.09375 0  0.15625 0.09375 0  0.1875 0.09375 0  0.21875 0.09375 0  0.25 0.09375 0  0.28125 0.09375 0  0.3125 0.09375 0  0.34375 0.09375 0  0.375 0.09375 0  0.40625 0.09375 0  0.4375 0.09375 0  0.46875 0.09375 0  0.5 0.09375 0  0.53125 0.09375 0  0.5625 0.09375 0  0.59375 0.09375 0  0.625 0.09375 0  0.65625 0.09375 0  0.6875 0.09375 0  0.71875 0.09375 0  0.75 0.09375 0  0.78125 0.09375 0  0.8125 0.09375 0  0.84375 0.09375 0  0.875 0.09375 0  0.90625 0.09375 0  0.9375 0.09375 0  0.96875 0.09375 0  1 0.09375 0  0 0.125 0  0.03125 0.125 0  0.0625 0.125 0  0.09375 0.125 0  0.125 0.125 0  0.15625 0.125 0  0.1875 0.125 0  0.21875 0.125 0  0.25 0.125 0  0.28125 0.125 0  0.3125 0.125 0  0.34375 0.125 0  0.375 0.125 0  0.40625 0.125 0  0.4375 0.125 0  0.46875 0.125 0  0.5 0.125 0  0.53125 0.125 0  0.5625 0.125 0  0.59375 0.125 0  0.625 0.125 0  0.65625 0.125 0  0.6875 0.125 0  0.71875 0.125 0  0.75 0.125 0  0.78125 0.125 0  0.8125 0.125 0  0.84375 0.125 0  0.875 0.125 0  0.90625 0.125 0  0.9375 0.125 0  0.96875 0.125 0  1 0.125 0  0 0.15625 0  0.03125 0.15625 0  0.0625 0.15625 0  0.09375 0.15625 0  0.125 0.15625 0  0.15625 0.15625 0  0.1875 0.15625 0  0.21875 0.15625 0  0.25 0.15625 0  0.28125 0.15625 0  0.3125 0.15625 0  0.34375 0.15625 0  0.375 0.15625 0  0.40625 0.15625 0  0.4375 0.15625 0  0.46875 0.15625 0  0.5 0.15625 0  0.53125 0.15625 0  0.5625 0.15625 0  0.59375 0.15625 0  0.625 0.15625 0  0.65625 0.15625 0  0.6875 0.15625 0  0.71875 0.15625 0  0.75 0.15625 0  0.78125 0.15625 0  0.8125 0.15625 0  0.84375 0.15625 0  0.875 0.15625 0  0.90625 0.15625 0  0.9375 0.15625 0  0.96875 0.15625 0  1 0.15625 0  0 0.1875 0  0.03125 0.1875 0  0.0625 0.1875 0  0.09375 0.1875 0  0.125 0.1875 0  0.15625 0.1875 0  0.1875 0.1875 0  0.21875 0.1875 0  0.25 0.1875 0  0.28125 0.1875 0  0.3125 0.1875 0  0.34375 0.1875 0  0.375 0.1875 0  0.40625 0.1875 0  0.4375 0.1875 0  0.46875 0.1875 0  0.5 0.1875 0  0.53125 0.1875 0  0.5625 0.1875 0  0.59375 0.1875 0  0.625 0.1875 0  0.65625 0.1875 0  0.6875 0.1875 0  0.71875 0.1875 0  0.75 0.1875 0  0.78125 0.1875 0  0.8125 0.1875 0  0.84375 0.1875 0  0.875 0.1875 0  0.90625 0.1875 0  0.9375 0.1875 0  0.96875 0.1875 0  1 0.1875 0  0 0.21875 0  0.03125 0.21875 0  0.0625 0.21875 0  0.09375 0.21875 0  0.125 0.21875 0  0.15625 0.21875 0  0.1875 0.21875 0  0.21875 0.21875 0  0.25 0.21875 0  0.28125 0.21875 0  0.3125 0.21875 0  0.34375 0.21875 0  0.375 0.21875 0  0.40625 0.21875 0  0.4375 0.21875 0  0.46875 0.21875 0  0.5 0.21875 0  0.53125 0.21875 0  0.5625 0.21875 0  0.59375 0.21875 0  0.625 0.21875 0  0.65625 0.21875 0  0.6875 0.21875 0  0.71875 0.21875 0  0.75 0.21875 0  0.78125 0.21875 0  0.8125 0.21875 0  0.84375 0.21875 0  0.875 0.21875 0  0.90625 0.21875 0  0.9375 0.21875 0  0.96875 0.21875 0  1 0.21875 0  0 0.25 0  0.03125 0.25 0  0.0625 0.25 0  0.09375 0.25 0  0.125 0.25 0  0.15625 0.25 0  0.1875 0.25 0  0.21875 0.25 0  0.25 0.25 0  0.28125 0.25 0  0.3125 0.25 0  0.34375 0.25 0  0.375 0.25 0  0.40625 0.25 0  0.4375 0.25 0  0.46875 0.25 0  0.5 0.25 0  0.53125 0.25 0  0.5625 0.25 0  0.59375 0.25 0  0.625 0.25 0  0.65625 0.25 0  0.6875 0.25 0  0.71875 0.25 0  0.75 0.25 0  0.78125 0.25 0  0.8125 0.25 0  0.84375 0.25 0  0.875 0.25 0  0.90625 0.25 0  0.9375 0.25 0  0.96875 0.25 0  1 0.25 0  0 0.28125 0  0.03125 0.28125 0  0.0625 0.28125 0  0.09375 0.28125 0  0.125 0.28125 0  0.15625 0.28125 0  0.1875 0.28125 0  0.21875 0.28125 0  0.25 0.28125 0  0.28125 0.28125 0  0.3125 0.28125 0  0.34375 0.28125 0  0.375 0.28125 0  0.40625 0.28125 0  0.4375 0.28125 0  0.46875 0.28125 0  0.5 0.28125 0  0.53125 0.28125 0  0.5625 0.28125 0  0.59375 0.28125 0  0.625 0.28125 0  0.65625 0.28125 0  0.6875 0.28125 0  0.71875 0.28125 0  0.75 0.28125 0  0.78125 0.28125 0  0.8125 0.28125 0  0.84375 0.28125 0  0.875 0.28125 0  0.90625 0.28125 0  0.9375 0.28125 0  0.96875 0.28125 0  1 0.28125 0  0 0.3125 0  0.03125 0.3125 0  0.0625 0.3125 0  0.09375 0.3125 0  0.125 0.3125 0  0.15625 0.3125 0  0.1875 0.3125 0  0.21875 0.3125 0  0.25 0.3125 0  0.28125 0.3125 0  0.3125 0.3125 0  0.34375 0.3125 0  0.375 0.3125 0  0.40625 0.3125 0  0.4375 0.3125 0  0.46875 0.3125 0  0.5 0.3125 0  0.53125 0.3125 0  0.5625 0.3125 0  0.59375 0.3125 0  0.625 0.3125 0  0.65625 0.3125 0  0.6875 0.3125 0  0.71875 0.3125 0  0.75 0.3125 0  0.78125 0.3125 0  0.8125 0.3125 0  0.84375 0.3125 0  0.875 0.3125 0  0.90625 0.3125 0  0.9375 0.3125 0  0.96875 0.3125 0  1 0.3125 0  0 0.34375 0  0.03125 0.34375 0  0.0625 0.34375 0  0.09375 0.34375 0  0.125 0.34375 0  0.15625 0.34375 0  0.1875 0.34375 0  0.21875 0.34375 0  0.25 0.34375 0  0.28125 0.34375 0  0.3125 0.34375 0  0.34375 0.34375 0  0.375 0.34375 0  0.40625 0.34375 0  0.4375 0.34375 0  0.46875 0.34375 0  0.5 0.34375 0  0.53125 0.34375 0  0.5625 0.34375 0  0.59375 0.34375 0  0.625 0.34375 0  0.65625 0.34375 0  0.6875 0.34375 0  0.71875 0.34375 0  0.75 0.34375 0  0.78125 0.34375 0  0.8125 0.34375 0  0.84375 0.34375 0  0.875 0.34375 0  0.90625 0.34375 0  0.9375 0.34375 0  0.96875 0.34375 0  1 0.34375 0  0 0.375 0  0.03125 0.375 0  0.0625 0.375 0  0.09375 0.375 0  0.125 0.375 0  0.15625 0.375 0  0.1875 0.375 0  0.21875 0.375 0  0.25 0.375 0  0.28125 0.375 0  0.3125 0.375 0  0.34375 0.375 0  0.375 0.375 0  0.40625 0.375 0  0.4375 0.375 0  0.46875 0.375 0  0.5 0.375 0  0.53125 0.375 0  0.5625 0.375 0  0.59375 0.375 0  0.625 0.375 0  0.65625 0.375 0  0.6875 0.375 0  0.71875 0.375 0  0.75 0.375 0  0.78125 0.375 0  0.8125 0.375 0  0.84375 0.375 0  0.875 0.375 0  0.90625 0.375 0  0.9375 0.375 0  0.96875 0.375 0  1 0.375 0  0 0.40625 0  0.03125 0.40625 0  0.0625 0.40625 0  0.09375 0.40625 0  0.125 0.40625 0  0.15625 0.40625 0  0.1875 0.40625 0  0.21875 0.40625 0  0.25 0.40625 0  0.28125 0.40625 0  0.3125 0.40625 0  0.34375 0.40625 0  0.375 0.40625 0  0.40625 0.40625 0  0.4375 0.40625 0  0.46875 0.40625 0  0.5 0.40625 0  0.53125 0.40625 0  0.5625 0.40625 0  0.59375 0.40625 0  0.625 0.40625 0  0.65625 0.40625 0  0.6875 0.40625 0  0.71875 0.40625 0  0.75 0.40625 0  0.78125 0.40625 0  0.8125 0.40625 0  0.84375 0.40625 0  0.875 0.40625 0  0.90625 0.40625 0  0.9375 0.40625 0  0.96875 0.40625 0  1 0.40625 0  0 0.4375 0  0.03125 0.4375 0  0.0625 0.4375 0  0.09375 0.4375 0  0.125 0.4375 0  0.15625 0.4375 0  0.1875 0.4375 0  0.21875 0.4375 0  0.25 0.4375 0  0.28125 0.4375 0  0.3125 0.4375 0  0.34375 0.4375 0  0.375 0.4375 0  0.40625 0.4375 0  0.4375 0.4375 0  0.46875 0.4375 0  0.5 0.4375 0  0.53125 0.4375 0  0.5625 0.4375 0  0.59375 0.4375 0  0.625 0.4375 0  0.65625 0.4375 0  0.6875 0.4375 0  0.71875 0.4375 0  0.75 0.4375 0  0.78125 0.4375 0  0.8125 0.4375 0  0.84375 0.4375 0  0.875 0.4375 0  0.90625 0.4375 0  0.9375 0.4375 0  0.96875 0.4375 0  1 0.4375 0  0 0.46875 0  0.03125 0.46875 0  0.0625 0.46875 0  0.09375 0.46875 0  0.125 0.46875 0  0.15625 0.46875 0  0.1875 0.46875 0  0.21875 0.46875 0  0.25 0.46875 0  0.28125 0.46875 0  0.3125 0.46875 0  0.34375 0.46875 0  0.375 0.46875 0  0.40625 0.46875 0  0.4375 0.46875 0  0.46875 0.46875 0  0.5 0.46875 0  0.53125 0.46875 0  0.5625 0.46875 0  0.59375 0.46875 0  0.625 0.46875 0  0.65625 0.46875 0  0.6875 0.46875 0  0.71875 0.46875 0  0.75 0.46875 0  0.78125 0.46875 0  0.8125 0.46875 0  0.84375 0.46875 0  0.875 0.46875 0  0.90625 0.46875 0  0.9375 0.46875 0  0.96875 0.46875 0  1 0.46875 0  0 0.5 0  0.03125 0.5 0  0.0625 0.5 0  0.09375 0.5 0  0.125 0.5 0  0.15625 0.5 0  0.1875 0.5 0  0.21875 0.5 0  0.25 0.5 0  0.28125 0.5 0  0.3125 0.5 0  0.34375 0.5 0  0.375 0.5 0  0.40625 0.5 0  0.4375 0.5 0  0.46875 0.5 0  0.5 0.5 0  0.53125 0.5 0  0.5625 0.5 0  0.59375 0.5 0  0.625 0.5 0  0.65625 0.5 0  0.6875 0.5 0  0.71875 0.5 0  0.75 0.5 0  0.78125 0.5 0  0.8125 0.5 0  0.84375 0.5 0  0.875 0.5 0  0.90625 0.5 0  0.9375 0.5 0  0.96875 0.5 0  1 0.5 0  0 0.53125 0  0.03125 0.53125 0  0.0625 0.53125 0  0.09375 0.53125 0  0.125 0.53125 0  0.15625 0.53125 0  0.1875 0.53125 0  0.21875 0.53125 0  0.25 0.53125 0  0.28125 0.53125 0  0.3125 0.53125 0  0.34375 0.53125 0  0.375 0.53125 0  0.40625 0.53125 0  0.4375 0.53125 0  0.46875 0.53125 0  0.5 0.53125 0  0.53125 0.53125 0  0.5625 0.53125 0  0.59375 0.53125 0  0.625 0.53125 0  0.65625 0.53125 0  0.6875 0.53125 0  0.71875 0.53125 0  0.75 0.53125 0  0.78125 0.531
[...]
<PointData  Scalars="ControlVisualisation"> 
<DataArray  type="Float64"  Name="ControlVisualisation"  format="ascii">4.1791738582140631e-01  3.8312585025876617e-01  3.4731626607712174e-01  3.5666127077271570e-01  3.3119675284245886e-01  2.9333653402063409e-01  2.8194228086920636e-01  2.7601957901652535e-01  2.5346052776210770e-01  2.2664494020259807e-01  2.0832867463627971e-01  1.9990826628150868e-01  1.8335936156181387e-01  1.5753349185616544e-01  1.2612549379993804e-01  9.8058871253225210e-02  8.6688081636812853e-02  9.8000001339576481e-02  1.2805725068804766e-01  1.6408417053147833e-01  1.9603929396799902e-01  2.1994366395769788e-01  2.3573368215244822e-01  2.6207797905062119e-01  2.9674239895945553e-01  3.2468163944430839e-01  3.3155788292739108e-01  3.3981625108203400e-01  3.8305924608255959e-01  4.0933589833347145e-01  3.9873403154160059e-01  4.3962452030703209e-01  4.7707305368380493e-01  3.8384971775655641e-01  3.6469555170341250e-01  4.2779655379004528e-01  3.6146426609946430e-01  3.4179990398354726e-01  2.9997093546855846e-01  2.9630572090335583e-01  2.6525145847475673e-01  2.4607150709664799e-01  2.1988663810852410e-01  2.0134382156857833e-01  1.7878617937362204e-01  1.6107027070645275e-01  1.3729351782522309e-01  1.0963614831384838e-01  8.8058626673663154e-02  7.8927398032627827e-02  8.8640336222849558e-02  1.1204726498876219e-01  1.4401359982017636e-01  1.7474951087886090e-01  1.9935147951663096e-01  2.2979603061273018e-01  2.5598530504803019e-01  2.8925003382151271e-01  3.1452414686403474e-01  3.4329218914651310e-01  3.5087535171831191e-01  3.9377674664133006e-01  4.1747324490345544e-01  4.7510993714025374e-01  4.3034925355647013e-01  4.4061371416640166e-01  3.4659562761219020e-01  4.2545274982607284e-01  2.7154995531965176e-01  2.9800507610457422e-01  2.7771910038405012e-01  3.0797436795662120e-01  2.5413511210272499e-01  2.5910983094554285e-01  2.4031335007644011e-01  2.3296961046046272e-01  2.0501163201899686e-01  1.8980045063641879e-01  1.7186540128161965e-01  1.4571632197052464e-01  1.2168358983189588e-01  1.0162427969653190e-01  9.8406903214655783e-02  1.0199444308136651e-01  1.2526744336334802e-01  1.5289728300277150e-01  1.8514726705802398e-01  2.0865772845872047e-01  2.3252603633386398e-01  2.6629156963953210e-01  2.8024311875710328e-01  3.0317511980962808e-01  3.0304183179562283e-01  3.5198197205812859e-01  3.2934931233808518e-01  3.5260340502935911e-01  3.3010717819414576e-01  4.7701984358678368e-01  3.9933593199008466e-01  3.4605659142862100e-01  3.5378647585373396e-01  2.9756460872423879e-01  3.5200900861522044e-01  3.3149485648431493e-01  2.8524749626457618e-01  2.7721452363924454e-01  2.3556049304370166e-01  2.3099519693468759e-01  2.0993137641136161e-01  2.0252105199168435e-01  1.6450889609208447e-01  1.4639686040511302e-01  1.3368584205489509e-01  1.0813845414764023e-01  1.0523994717657753e-01  9.0435495728520943e-02  1.0551617960165115e-01  1.0858008125721660e-01  1.3834540186059421e-01  1.5582395992873035e-01  1.8247290302099406e-01  2.2387151311561115e-01  2.4291618951008365e-01  2.6776724987172434e-01  2.7669621892215135e-01  3.1643211807539406e-01  3.3298157459813893e-01  3.7273081777744854e-01  4.0204193946931432e-01  3.4982458407777473e-01  4.1546003833476219e-01  4.0086031192879751e-01  3.1288766464026124e-01  3.2379791701742222e-01  2.6331186359714565e-01  3.1196468212656703e-01  1.9729116194457183e-01  3.0077015511762273e-01  2.3525142870859728e-01  2.4339883622304620e-01  2.2800428614460158e-01  2.3398373090760380e-01  1.9349631022999716e-01  1.5643068338811905e-01  1.5476946832228289e-01  1.2404736261186448e-01  1.1745102934438138e-01  1.0044339850897892e-01  1.1205413519454144e-01  9.9951468105116625e-02  1.1711663221386286e-01  1.2845327955607450e-01  1.6311899955671982e-01  1.7122914293002006e-01  2.1738575726966181e-01  2.5897761451849638e-01  2.6567818586846659e-01  2.8113513352319491e-01  2.7435768586185749e-01  3.3797274433036417e-01  2.4860306804104484e-01  3.6071749013689763e-01  3.1703950101058698e-01  3.8460697830133156e-01  3.6836750812980035e-01  2.6176478481293464e-01  2.7579922154912950e-01  2.8925417444582829e-01  2.6325977532861955e-01  2.9859788758390216e-01  3.4002855281071032e-01  2.7135317073533349e-01  2.3371630065686261e-01  2.2383778441199317e-01  2.0432308187759715e-01  1.8438173378627387e-01  1.4616277062775501e-01  1.2229240395878885e-01  1.1665035028746570e-01  9.5369968815168155e-02  9.9492943031039421e-02  8.5826504696754027e-02  9.6878723182429363e-02  9.6994124854370783e-02  1.1392702676402049e-01  1.3084039980403955e-01  1.5753538872651829e-01  2.0375826018220450e-01  2.3016887818381188e-01  2.5180599430013006e-01  2.7199352534223520e-01  3.0362416370450740e-01  3.7239087398275250e-01  3.2903365275864827e-01  3.1415173183894496e-01  3.3458781532693810e-01  3.3828008626739081e-01  3.1760177596923755e-01  2.3598536690650712e-01  2.6818376981869352e-01  2.3476268354381258e-01  2.6581178674634248e-01  2.5197795033513892e-01  3.0597096082705355e-01  1.9498383830075308e-01  2.2102047213949000e-01  2.1972076300543492e-01  2.4572007603769791e-01  2.0015379814510625e-01  1.4807171029434971e-01  1.6087970430313575e-01  1.3921534834476518e-01  1.3123838071612767e-01  1.4034291321343534e-01  1.3849815334612781e-01  1.3793369450450546e-01  1.2450903131914837e-01  1.4399886550856922e-01  1.5691011440144526e-01  1.6380194035182277e-01  2.2074530057137490e-01  2.7329188760847611e-01  2.5232293229007313e-01  2.5488557231270664e-01  2.3578667561374184e-01  3.4225866031715291e-01  2.8878010934835030e-01  3.1042140559348513e-01  2.8723907936779441e-01  3.3060769169857768e-01  2.9660167382807662e-01  2.2761635938109756e-01  2.4178984377804558e-01  2.4310438086013639e-01  2.3369084054033043e-01  2.7178510645318299e-01  2.9400421538324190e-01  2.3128508705847767e-01  2.5888690255882207e-01  2.5562489001324601e-01  2.2263579975184758e-01  1.8016996970775215e-01  1.6165199334876917e-01  1.4826117206474254e-01  1.3228988259977215e-01  1.4811391490557776e-01  1.3537257728485252e-01  1.3707663994665725e-01  1.3328248453472152e-01  1.3276665915957170e-01  1.2839590810612095e-01  1.4926990783159155e-01  1.5447743134353092e-01  2.0066175310601078e-01  2.4833860960927009e-01  2.8960784573263576e-01  2.9424973690655043e-01  2.6165598430053916e-01  3.2963713842747261e-01  3.0469392070193357e-01  2.8027151622361607e-01  2.8982994713616478e-01  3.0735472367620437e-01  2.8919657221765360e-01  2.1608658760283148e-01  2.4242232920431314e-01  2.4089639751330119e-01  2.5673241924328594e-01  2.9529366733008122e-01  3.1878272387847056e-01  2.4903980724771316e-01  2.8152078118832774e-01  2.1334292147937411e-01  2.2643402364892112e-01  2.1087485949383281e-01  1.4824916032589575e-01  1.4019232364147266e-01  1.5107726324831799e-01  1.4282514811876151e-01  1.3388122641682204e-01  1.5687071761540922e-01  1.2907800146755330e-01  1.4037832998094427e-01  1.2317237431541819e-01  1.5230131538662434e-01  1.4398631868570411e-01  2.1484529308349612e-01  2.5027134977673149e-01  2.4287457536953805e-01  3.1943629023738790e-01  2.8427597691128748e-01  3.4759984358906310e-01  3.2398172675412301e-01  2.9761395332556750e-01  2.8485671836603643e-01  3.0319478799660399e-01  2.7414951879254024e-01  2.1294691493638696e-01  2.4246154410989257e-01  2.5818853923838664e-01  2.7327693866301528e-01  3.2442838077682018e-01  3.2260739154290380e-01  3.0165274534096825e-01  2.7317135455133801e-01  2.3291314687584000e-01  2.5455091958046827e-01  1.6907740895275167e-01  1.0962962863713774e-01  1.3767428056474659e-01  1.3551937186132693e-01  9.8974361943144976e-02  1.1992806581374710e-01  1.0659476807294707e-01  1.1133216859051698e-01  1.1090870417693813e-01  1.1519848080480526e-01  1.1762688700296860e-01  1.2502666601734816e-01  1.7128860298168402e-01  2.8097753278763099e-01  2.6028332253983089e-01  3.0246014810354044e-01  3.3163482821440637e-01  3.5363919101584068e-01  3.4605715805059029e-01  3.0869556916008856e-01  2.9431766944501780e-01  2.9864241939331293e-01  2.6511343311849478e-01  2.2027968954579347e-01  2.6316019505297406e-01  2.8059747176161470e-01  3.1390620812348036e-01  3.4115094051995126e-01  3.7785664969091631e-01  3.1917421635019388e-01  2.6260138175957892e-01  2.2511187564316321e-01  1.9642028927005506e-01  1.3335346486045929e-01  1.3270683054324994e-01  1.6076911306450725e-01  1.1221433202347188e-01  9.8601150300523327e-02  1.1768648317653002e-01  7.7860195659139833e-02  1.0014852899494174e-01  8.7912761320377258e-02  1.1196319387280065e-01  1.2091896289662218e-01  1.2589194248138386e-01  1.2862077039843234e-01  2.1646809524226557e-01  2.6880607767876979e-01  2.9577195714437604e-01  3.4337961686890645e-01  3.9998643786426979e-01  3.6179847228234896e-01  3.4222241184896829e-01  3.1019330959643276e-01  3.1164363558360675e-01  2.6714289479998510e-01  2.4932797795437689e-01  2.8571164013079142e-01  3.0937849908980758e-01  3.2915286500813540e-01  3.6387026878595091e-01  3.9105025741295951e-01  2.8679415562465427e-01  2.3306154758994727e-01  1.8085337736684565e-01  1.9072033990773479e-01  1.6354557464828473e-01  1.7368892698540550e-01  1.4885187516316403e-01  1.1904287121682514e-01  1.1871604025446475e-01  1.2407177207763914e-01  7.0146906326008299e-02  1.1499844710134421e-01  7.1739808318027648e-02  1.2215667679430570e-01  1.1174210429930301e-01  1.5515036992751069e-01  1.5481040062426571e-01  1.8106853034776682e-01  2.1342986589144916e-01  2.7965873335237917e-01  3.1761978096287291e-01  4.0953894482360254e-01  3.7588426313296791e-01  3.5473931182155000e-01  3.3237112046060169e-01  3.2879162036370296e-01  2.8968071922793298e-01  2.8286169031770558e-01  3.1648208952708740e-01  3.4833247377894916e-01  3.5681511533583821e-01  4.0042280233030536e-01  3.9362481488909440e-01  2.8401631249716630e-01  2.1604932204919564e-01  1.8979931078795764e-01  1.8450128347302899e-01  1.6087022253107508e-01  1.4511138977454918e-01  1.2629165309367840e-01  1.1544215039740860e-01  1.2128668364106003e-01  7.0253228946972945e-02  9.3826625632773303e-02  1.2327287532928038e-01  8.4936527577280319e-02  1.2725351491913389e-01  1.1709158482428576e-01  1.1894970950018136e-01  1.6997395194020770e-01  1.8233351188688571e-01  1.9677610167350310e-01  2.4669078195286720e-01  3.1857786885670342e-01  4.1334779274111400e-01  4.0571535875215697e-01  3.7373405130821952e-01  3.6416869500932142e-01  3.5287886571424981e-01  3.1687036137909569e-01  3.1181629342835571e-01  3.4987158535479018e-01  3.7690391990639516e-01  3.9267249517554925e-01  4.1971115552976357e-01  4.0283333358357254e-01  2.6995453739228847e-01  2.0872756663563544e-01  1.5865550262897463e-01  1.5439449519861853e-01  1.3826003972857195e-01  1.2651131826848633e-01  1.0565388383390018e-01  9.2876866837434652e-02  8.3229972888194198e-02  7.0823830436110180e-02  1.3148691013325348e-01  7.9906340885837493e-02  1.0817629543844406e-01  8.1208290262402810e-02  1.3195745462881925e-01  1.1259938043865395e-01  1.4312049178171385e-01  1.7128645539067258e-01  1.8017135499190468e-01  2.2572182904895913e-01  2.9040222577914543e-01  4.2131650948801247e-01  4.2193099746074103e-01  4.0254127000946338e-01  3.8478591129825668e-01  3.7917515530109858e-01  3.3905907741864133e-01  3.3555910705238673e-01  3.6882140588518109e-01  4.0523178461456599e-01  4.0674781875352195e-01  4.3310000512378310e-01  3.9523310419429158e-01  2.5292233691660226e-01  1.8742493552930090e-01  1.3405138662721480e-01  1.3776879935359188e-01  1.2034156092893165e-01  8.3334838332532274e-02  7.0096853285819133e-02  5.3099017764080131e-02  7.3548211142488593e-02  7.4930307808138266e-02  1.0098055823021504e-01  5.2760069149360433e-02  9.0419457517531471e-02  7.4602132200229432e-02  9.0935448660384124e-02  1.0343261336114581e-01  1.2245954986119728e-01  1.4498301605036862e-01  1.5815149097656661e-01  2.1629656927326363e-01  2.6529011535259489e-01  4.0340379575741347e-01  4.3098796308708415e-01  4.1056619605924582e-01  4.0579507527007763e-01  3.9097958794826004e-01  3.5583900476129154e-01  3.4798899372947756e-01  3.8739066447258236e-01  4.1803057951271216e-01  4.2644749730563214e-01  4.4228894738242108e-01  3.9757027835607384e-01  2.4850255003104252e-01  1.7914387823532579e-01  1.1899951976011656e-01  1.1797139686671682e-01  7.9509671818788430e-02  2.3996412839122461e-02  5.5306854741144123e-03  5.2271416414976356e-03  1.7026459681389033e-01  4.7770395011107122e-02  4.8954479454020018e-02  1.8087685445572758e-02  4.3823185738230949e-02  4.4103663490314790e-02  4.9137061428251555e-02  6.8127107458756136e-02  9.4913092656487508e-02  1.1986097736763447e-01  1.2208647489171517e-01  2.0046526010471427e-01  2.6060965456798724e-01  3.9797199959003221e-01  4.3113235414042184e-01  4.2456716336165012e-01  4.1104101648207375e-01  4.0335086841892809e-01  3.6224935397615160e-01  3.5503685587902917e-01  3.9137739246065262e-01  4.3431721271962931e-01  4.3013225440140535e-01  4.5767555764888423e-01  3.9401643816026599e-01  2.5669606164648495e-01  1.5703029879048752e-01  1.1855044001201936e-01  1.0338490791348773e-01  7.6114440720637971e-02  7.8674212225289409e-03  2.2105282067152445e-03  9.7031622720718800e-04  6.0236413163447554e-04  5.1144802793291907e-04  6.0781087896258986e-04  7.1371438409947884e-04  8.8329247994960842e-04  1.3148810705103800e-03  2.4518637136709083e-03  8.4034207116604476e-03  7.7839414704211546e-02  1.0498438681475797e-01  1.2137032083860061e-01  1.6789355563667860e-01  2.5991952974076576e-01  3.8688158152121999e-01  4.3986297460040036e-01  4.2140206458093354e-01  4.2188719792519935e-01  4.0202732723991774e-01  3.6512494445301480e-01  3.5581909899533404e-01  3.9600575860833143e-01  4.2748645135558849e-01  4.3589955019720150e-01  4.5143957115479877e-01  4.0457804805462072e-01  2.5150456707740365e-01  1.7820917986592238e-01  1.1103321440838544e-01  1.1422901954338316e-01  8.0966620575649087e-02  3.5647899740892379e-02  1.2351065121297734e-02  9.2157967369033075e-03  3.6661429073390427e-03  9.9696725188618386e-04  8.0473855441394243e-04  7.5978337036766437e-04  7.9613144131557864e-04  9.7639695750066321e-04  1.5776989867798865e-03  5.2865557655712870e-03  6.8027251029999042e-02  1.1145199329117370e-01  1.1298422170474268e-01  1.7987418969883553e-01  2.4570163892520752e-01  3.8894603772687997e-01  4.2822993001965137e-01  4.2366458700788828e-01  4.1172537239009399e-01  4.0378065649988143e-01  3.6356870594753776e-01  3.4946740045377378e-01  3.8449302272112790e-01  4.2255505161359475e-01  4.2521179592955066e-01  4.5115052552617868e-01  4.1040384437201327e-01  2.5867467307085890e-01  1.8654570615143162e-01  1.2495522151708391e-01  1.3240911844818271e-01  1.2058205643780218e-01  9.1269984101777279e-02  7.0582640577679337e-02  4.9272188723243848e-02  4.4988213789488855e-02  4.4480877004212244e-02  4.5573787093621212e-02  4.4644817281989768e-02  4.5314701210175168e-02  4.8371597117372628e-02  7.4118545743466629e-02  7.4654920214914766e-02  1.1727076294713079e-01  1.2083243186133760e-01  1.1542805472094916e-01  1.8106592418945650e-01  2.5039347322777250e-01  3.8901110060221955e-01  4.2366397632334696e-01  4.1041780485947610e-01  4.0597446221820549e-01  3.9146410181559133e-01  3.5733793726316365e-01  3.2875834532440618e-01  3.7001653163438708e-01  3.9984120120083488e-01  4.1783199611708011e-01  4.4551151508564812e-01  4.2890523518145873e-01  2.8561367240441193e-01  2.1299423728174627e-01  1.5156520758134767e-01  1.4510210434978948e-01  1.3828096238922208e-01  1.3434928284794198e-01  1.1079608576102293e-01  9.3532192256842353e-02  8.1538505459115160e-02  8.2790468985803889e-02  8.2875741019025936e-02  8.3526884102373855e-02  8.2566496465826700e-02  9.6932328025771813e-02  1.0444489397978582e-01  1.2979736486178359e-01  1.2635048539494848e-01  1.2032361214891407e-01  1.4543262325350290e-01  2.1015288323212705e-01  2.6574091673218636e-01  4.0058432218741563e-01  4.1707576807104679e-01  4.0476451688159470e-01  3.8475364959159575e-01  3.7874774214210011e-01  3.3877171111544380e-01  2.9974325295855153e-01  3.3751238535829892e-01  3.7403224376061306e-01  3.8612472864840452e-01  4.3056492391552026e-01  4.2554421213846427e-01  3.0993870078768504e-01  2.3238340984006614e-01  1.9559971636649040e-01  1.8371512413336710e-01  1.6471820147356375e-01  1.5583949609530301e-01  1.4469088368223304e-01  1.3241134555159978e-01  1.2129127378382577e-01  1.1038625318933505e-01  1.1891311247888300e-01  1.0909828602367637e-01  1.1929080283785828e-01  1.2731897312997215e-01  1.2662347440190258e-01  1.4329250627772111e-01  1.3562333421658718e-01  1.6342063531158194e-01  1.8822323270905675e-01  2.0836012613474642e-01  2.8650084797302833e-01  4.0250556641160018e-01  4.0764895705807835e-01  3.7617790819067481e-01  3.6326249446627989e-01  3.4922052000721687e-01  3.1351382460109989e-01  2.6366532410640908e-01  3.0537545874013095e-01  3.3467215557626911e-01  3.6107627514184587e-01  3.9866523913827234e-01  4.2964647110334697e-01  3.1985905562061212e-01  2.5856590203328861e-01  1.9713418309217082e-01  2.0146639876544262e-01  1.7381813895240542e-01  1.8430179025390506e-01  1.6575790162666121e-01  1.4578149689199887e-01  1.3365118420499258e-01  1.2647291152953724e-01  1.1786638089737614e-01  1.2024068695726717e-01  1.1782932954380515e-01  1.2774363251901860e-01  1.4136839819281993e-01  1.5599241239619852e-01  1.3331441417323167e-01  1.7840975141354840e-01  1.6624164288813209e-01  2.3670016116612569e-01  3.0909805370073440e-01  4.0888362426962183e-01  3.7847141681811969e-01  3.5587592451331840e-01  3.2982577473992664e-01  3.2181114186855159e-01  2.8144527858232954e-01  2.3164852236438704e-01  2.8101341380495765e-01  3.0499889067096780e-01  3.4554047221038975e-01  3.7824042510472117e-01  4.2137967635658313e-01  3.6293278499186138e-01  2.9849520518141237e-01  2.5323566159718336e-01  2.1027562761877810e-01  1.4720308317405867e-01  1.4043401468867414e-01  1.5894095166032438e-01  1.2349283627671236e-01  1.1200692987760782e-01  1.0354249949136414e-01  8.3454823346713058e-02  9.0418803457580160e-02  8.7499772277318366e-02  9.1899241864559986e-02  1.2312967614075927e-01  9.5296914834805568e-02  1.1136964322440607e-01  1.7964539491526210e-01  2.2740853087993718e-01  2.9376382455788425e-01  3.5005491425695479e-01  4.0139856078855746e-01  3.6653886250241879e-01  3.4721324233695611e-01  3.0477686849931834e-01  2.9969369770558874e-01  2.5281464948325272e-01  2.2347479455046163e-01  2.5820182393860885e-01  2.7958557238423898e-01  3.0148160793130191e-01  3.5870402786137257e-01  3.6332955819446289e-01  3.4659962352434359e-01  3.1650248575693207e-01  2.7272976204631194e-01  2.8536325893981229e-01  1.7954180936720207e-01  1.2787373867864035e-01  1.3646515726112698e-01  1.1978252725370618e-01  1.0701493946805535e-01  1.0584553953980258e-01  8.7566677406923907e-02  9.3359310989529681e-02  8.6025401632006337e-02  8.9108209576879246e-02  1.0294886851502927e-01  9.1083914050096304e-02  1.5333081529362055e-01  2.5622053532605688e-01  2.6142065048458846e-01  3.1114716680840948e-01  3.3417996614683521e-01  3.5621279294693359e-01  3.5777882455035948e-01  3.0677884864611449e-01  2.8419353442372153e-01  2.7933038521457343e-01  2.4456744274952064e-01  2.2607173779352854e-01  2.5654054835071810e-01  2.6011266403249889e-01  2.8024792168570190e-01  3.2683734130318726e-01  3.5639427775694243e-01  2.9118788515485716e-01  3.2557796216339874e-01  2.5452389266626363e-01  2.6974155678843248e-01  2.3748425399913681e-01  1.6104801486739709e-01  1.6339262434258475e-01  1.4504001910774469e-01  1.3576104063753142e-01  1.3643390427657204e-01  1.4251775845403397e-01  1.2728421601078990e-01  1.1988402225213789e-01  1.2174492774618559e-01  1.3453087747887965e-01  1.3285077497210651e-01  2.1230373907174008e-01  2.4706739806548822e-01  2.4933330016138286e-01  3.1955976510888634e-01  2.8957837382407947e-01  3.5900076947362680e-01  3.2749334030391053e-01  2.8883901248257882e-01  2.6765840300529209e-01  2.7689548897887561e-01  2.4563762239387538e-01  2.3562439704565319e-01  2.5240800458978829e-01  2.5750220075453878e-01  2.524046895