<?xml version="1.0"?>
<VTKFile type="UnstructuredGrid"  version="0.1"  >
<UnstructuredGrid>
<Piece  NumberOfPoints="1089" NumberOfCells="2048">
<Points>
<DataArray  type="Float64"  NumberOfComponents="3"  format="ascii">0 0 0  0.03125 0 0  0.0625 0 0  0.09375 0 0  0.125 0 0  0.15625 0 0  0.1875 0 0  0.21875 0 0  0.25 0 0  0.28125 0 0  0.3125 0 0  0.34375 0 0  0.375 0 0  0.40625 0 0  0.4375 0 0  0.46875 0 0  0.5 0 0  0.53125 0 0  0.5625 0 0  0.59375 0 0  0.625 0 0  0.65625 0 0  0.6875 0 0  0.71875 0 0  0.75 0 0  0.78125 0 0  0.8125 0 0  0.84375 0 0  0.875 0 0  0.90625 0 0  0.9375 0 0  0.96875 0 0  1 0 0  0 0.03125 0  0.03125 0.03125 0  0.0625 0.03125 0  0.09375 0.03125 0  0.125 0.03125 0  0.15625 0.03125 0  0.1875 0.03125 0  0.21875 0.03125 0  0.25 0.03125 0  0.28125 0.03125 0  0.3125 0.03125 0  0.34375 0.03125 0  0.375 0.03125 0  0.40625 0.03125 0  0.4375 0.03125 0  0.46875 0.03125 0  0.5 0.03125 0  0.53125 0.03125 0  0.5625 0.03125 0  0.59375 0.03125 0  0.625 0.03125 0  0.65625 0.03125 0  0.6875 0.03125 0  0.71875 0.03125 0  0.75 0.03125 0  0.78125 0.03125 0  0.8125 0.03125 0  0.84375 0.03125 0  0.875 0.03125 0  0.90625 0.03125 0  0.9375 0.03125 0  0.96875 0.03125 0  1 0.03125 0  0 0.0625 0  0.03125 0.0625 0  0.0625 0.0625 0  0.09375 0.0625 0  0.125 0.0625 0  0.15625 0.0625 0  0.1875 0.0625 0  0.21875 0.0625 0  0.25 0.0625 0  0.28125 0.0625 0  0.3125 0.0625 0  0.34375 0.0625 0  0.375 0.0625 0  0.40625 0.0625 0  0.4375 0.0625 0  0.46875 0.0625 0  0.5 0.0625 0  0.53125 0.0625 0  0.5625 0.0625 0  0.59375 0.0625 0  0.625 0.0625 0  0.65625 0.0625 0  0.6875 0.0625 0  0.71875 0.0625 0  0.75 0.0625 0  0.78125 0.0625 0  0.8125 0.0625 0  0.84375 0.0625 0  0.875 0.0625 0  0.90625 0.0625 0  0.9375 0.0625 0  0.96875 0.0625 0  1 0.0625 0  0 0.09375 0  0.03125 0.09375 0  0.0625 0.09375 0  0.09375 0.09375 0  0.125 0.09375 0  0.15625 0.09375 0  0.1875 0.09375 0  0.21875 0.09375 0  0.25 0.09375 0  0.28125 0.09375 0  0.3125 0.09375 0  0.34375 0.09375 0  0.375 0.09375 0  0.40625 0.09375 0  0.4375 0.09375 0  0.46875 0.09375 0  0.5 0.09375 0  0.53125 0.09375 0  0.5625 0.09375 0  0.59375 0.09375 0  0.625 0.09375 0  0.65625 0.09375 0  0.6875 0.09375 0  0.71875 0.09375 0  0.75 0.09375 0  0.78125 0.09375 0  0.8125 0.09375 0  0.84375 0.09375 0  0.875 0.09375 0  0.90625 0.09375 0  0.9375 0.09375 0  0.96875 0.09375 0  1 0.09375 0  0 0.125 0  0.03125 0.125 0  0.0625 0.125 0  0.09375 0.125 0  0.125 0.125 0  0.15625 0.125 0  0.1875 0.125 0  0.21875 0.125 0  0.25 0.125 0  0.28125 0.125 0  0.3125 0.125 0  0.34375 0.125 0  0.375 0.125 0  0.40625 0.125 0  0.4375 0.125 0  0.46875 0.125 0  0.5 0.125 0  0.53125 0.125 0  0.5625 0.125 0  0.59375 0.125 0  0.625 0.125 0  0.65625 0.125 0  0.6875 0.125 0  0.71875 0.125 0  0.75 0.125 0  0.78125 0.125 0  0.8125 0.125 0  0.84375 0.125 0  0.875 0.125 0  0.90625 0.125 0  0.9375 0.125 0  0.96875 0.125 0  1 0.125 0  0 0.15625 0  0.03125 0.15625 0  0.0625 0.15625 0  0.09375 0.15625 0  0.125 0.15625 0  0.15625 0.15625 0  0.1875 0.15625 0  0.21875 0.15625 0  0.25 0.15625 0  0.28125 0.15625 0  0.3125 0.15625 0  0.34375 0.15625 0  0.375 0.15625 0  0.40625 0.15625 0  0.4375 0.15625 0  0.46875 0.15625 0  0.5 0.15625 0  0.53125 0.15625 0  0.5625 0.15625 0  0.59375 0.15625 0  0.625 0.15625 0  0.65625 0.15625 0  0.6875 0.15625 0  0.71875 0.15625 0  0.75 0.15625 0  0.78125 0.15625 0  0.8125 0.15625 0  0.84375 0.15625 0  0.875 0.15625 0  0.90625 0.15625 0  0.9375 0.15625 0  0.96875 0.15625 0  1 0.15625 0  0 0.1875 0  0.03125 0.1875 0  0.0625 0.1875 0  0.09375 0.1875 0  0.125 0.1875 0  0.15625 0.1875 0  0.1875 0.1875 0  0.21875 0.1875 0  0.25 0.1875 0  0.28125 0.1875 0  0.3125 0.1875 0  0.34375 0.1875 0  0.375 0.1875 0  0.40625 0.1875 0  0.4375 0.1875 0  0.46875 0.1875 0  0.5 0.1875 0  0.53125 0.1875 0  0.5625 0.1875 0  0.59375 0.1875 0  0.625 0.1875 0  0.65625 0.1875 0  0.6875 0.1875 0  0.71875 0.1875 0  0.75 0.1875 0  0.78125 0.1875 0  0.8125 0.1875 0  0.84375 0.1875 0  0.875 0.1875 0  0.90625 0.1875 0  0.9375 0.1875 0  0.96875 0.1875 0  1 0.1875 0  0 0.21875 0  0.03125 0.21875 0  0.0625 0.21875 0  0.09375 0.21875 0  0.125 0.21875 0  0.15625 0.21875 0  0.1875 0.21875 0  0.21875 0.21875 0  0.25 0.21875 0  0.28125 0.21875 0  0.3125 0.21875 0  0.34375 0.21875 0  0.375 0.21875 0  0.40625 0.21875 0  0.4375 0.21875 0  0.46875 0.21875 0  0.5 0.21875 0  0.53125 0.21875 0  0.5625 0.21875 0  0.59375 0.21875 0  0.625 0.21875 0  0.65625 0.21875 0  0.6875 0.21875 0  0.71875 0.21875 0  0.75 0.21875 0  0.78125 0.21875 0  0.8125 0.21875 0  0.84375 0.21875 0  0.875 0.21875 0  0.90625 0.21875 0  0.9375 0.21875 0  0.96875 0.21875 0  1 0.21875 0  0 0.25 0  0.03125 0.25 0  0.0625 0.25 0  0.09375 0.25 0  0.125 0.25 0  0.15625 0.25 0  0.1875 0.25 0  0.21875 0.25 0  0.25 0.25 0  0.28125 0.25 0  0.3125 0.25 0  0.34375 0.25 0  0.375 0.25 0  0.40625 0.25 0  0.4375 0.25 0  0.46875 0.25 0  0.5 0.25 0  0.53125 0.25 0  0.5625 0.25 0  0.59375 0.25 0  0.625 0.25 0  0.65625 0.25 0  0.6875 0.25 0  0.71875 0.25 0  0.75 0.25 0  0.78125 0.25 0  0.8125 0.25 0  0.84375 0.25 0  0.875 0.25 0  0.90625 0.25 0  0.9375 0.25 0  0.96875 0.25 0  1 0.25 0  0 0.28125 0  0.03125 0.28125 0  0.0625 0.28125 0  0.09375 0.28125 0  0.125 0.28125 0  0.15625 0.28125 0  0.1875 0.28125 0  0.21875 0.28125 0  0.25 0.28125 0  0.28125 0.28125 0  0.3125 0.28125 0  0.34375 0.28125 0  0.375 0.28125 0  0.40625 0.28125 0  0.4375 0.28125 0  0.46875 0.28125 0  0.5 0.28125 0  0.53125 0.28125 0  0.5625 0.28125 0  0.59375 0.28125 0  0.625 0.28125 0  0.65625 0.28125 0  0.6875 0.28125 0  0.71875 0.28125 0  0.75 0.28125 0  0.78125 0.28125 0  0.8125 0.28125 0  0.84375 0.28125 0  0.875 0.28125 0  0.90625 0.28125 0  0.9375 0.28125 0  0.96875 0.28125 0  1 0.28125 0  0 0.3125 0  0.03125 0.3125 0  0.0625 0.3125 0  0.09375 0.3125 0  0.125 0.3125 0  0.15625 0.3125 0  0.1875 0.3125 0  0.21875 0.3125 0  0.25 0.3125 0  0.28125 0.3125 0  0.3125 0.3125 0  0.34375 0.3125 0  0.375 0.3125 0  0.40625 0.3125 0  0.4375 0.3125 0  0.46875 0.3125 0  0.5 0.3125 0  0.53125 0.3125 0  0.5625 0.3125 0  0.59375 0.3125 0  0.625 0.3125 0  0.65625 0.3125 0  0.6875 0.3125 0  0.71875 0.3125 0  0.75 0.3125 0  0.78125 0.3125 0  0.8125 0.3125 0  0.84375 0.3125 0  0.875 0.3125 0  0.90625 0.3125 0  0.9375 0.3125 0  0.96875 0.3125 0  1 0.3125 0  0 0.34375 0  0.03125 0.34375 0  0.0625 0.34375 0  0.09375 0.34375 0  0.125 0.34375 0  0.15625 0.34375 0  0.1875 0.34375 0  0.21875 0.34375 0  0.25 0.34375 0  0.28125 0.34375 0  0.3125 0.34375 0  0.34375 0.34375 0  0.375 0.34375 0  0.40625 0.34375 0  0.4375 0.34375 0  0.46875 0.34375 0  0.5 0.34375 0  0.53125 0.34375 0  0.5625 0.34375 0  0.59375 0.34375 0  0.625 0.34375 0  0.65625 0.34375 0  0.6875 0.34375 0  0.71875 0.34375 0  0.75 0.34375 0  0.78125 0.34375 0  0.8125 0.34375 0  0.84375 0.34375 0  0.875 0.34375 0  0.90625 0.34375 0  0.9375 0.34375 0  0.96875 0.34375 0  1 0.34375 0  0 0.375 0  0.03125 0.375 0  0.0625 0.375 0  0.09375 0.375 0  0.125 0.375 0  0.15625 0.375 0  0.1875 0.375 0  0.21875 0.375 0  0.25 0.375 0  0.28125 0.375 0  0.3125 0.375 0  0.34375 0.375 0  0.375 0.375 0  0.40625 0.375 0  0.4375 0.375 0  0.46875 0.375 0  0.5 0.375 0  0.53125 0.375 0  0.5625 0.375 0  0.59375 0.375 0  0.625 0.375 0  0.65625 0.375 0  0.6875 0.375 0  0.71875 0.375 0  0.75 0.375 0  0.78125 0.375 0  0.8125 0.375 0  0.84375 0.375 0  0.875 0.375 0  0.90625 0.375 0  0.9375 0.375 0  0.96875 0.375 0  1 0.375 0  0 0.40625 0  0.03125 0.40625 0  0.0625 0.40625 0  0.09375 0.40625 0  0.125 0.40625 0  0.15625 0.40625 0  0.1875 0.40625 0  0.21875 0.40625 0  0.25 0.40625 0  0.28125 0.40625 0  0.3125 0.40625 0  0.34375 0.40625 0  0.375 0.40625 0  0.40625 0.40625 0  0.4375 0.40625 0  0.46875 0.40625 0  0.5 0.40625 0  0.53125 0.40625 0  0.5625 0.40625 0  0.59375 0.40625 0  0.625 0.40625 0  0.65625 0.40625 0  0.6875 0.40625 0  0.71875 0.40625 0  0.75 0.40625 0  0.78125 0.40625 0  0.8125 0.40625 0  0.84375 0.40625 0  0.875 0.40625 0  0.90625 0.40625 0  0.9375 0.40625 0  0.96875 0.40625 0  1 0.40625 0  0 0.4375 0  0.03125 0.4375 0  0.0625 0.4375 0  0.09375 0.4375 0  0.125 0.4375 0  0.15625 0.4375 0  0.1875 0.4375 0  0.21875 0.4375 0  0.25 0.4375 0  0.28125 0.4375 0  0.3125 0.4375 0  0.34375 0.4375 0  0.375 0.4375 0  0.40625 0.4375 0  0.4375 0.4375 0  0.46875 0.4375 0  0.5 0.4375 0  0.53125 0.4375 0  0.5625 0.4375 0  0.59375 0.4375 0  0.625 0.4375 0  0.65625 0.4375 0  0.6875 0.4375 0  0.71875 0.4375 0  0.75 0.4375 0  0.78125 0.4375 0  0.8125 0.4375 0  0.84375 0.4375 0  0.875 0.4375 0  0.90625 0.4375 0  0.9375 0.4375 0  0.96875 0.4375 0  1 0.4375 0  0 0.46875 0  0.03125 0.46875 0  0.0625 0.46875 0  0.09375 0.46875 0  0.125 0.46875 0  0.15625 0.46875 0  0.1875 0.46875 0  0.21875 0.46875 0  0.25 0.46875 0  0.28125 0.46875 0  0.3125 0.46875 0  0.34375 0.46875 0  0.375 0.46875 0  0.40625 0.46875 0  0.4375 0.46875 0  0.46875 0.46875 0  0.5 0.46875 0  0.53125 0.46875 0  0.5625 0.46875 0  0.59375 0.46875 0  0.625 0.46875 0  0.65625 0.46875 0  0.6875 0.46875 0  0.71875 0.46875 0  0.75 0.46875 0  0.78125 0.46875 0  0.8125 0.46875 0  0.84375 0.46875 0  0.875 0.46875 0  0.90625 0.46875 0  0.9375 0.46875 0  0.96875 0.46875 0  1 0.46875 0  0 0.5 0  0.03125 0.5 0  0.0625 0.5 0  0.09375 0.5 0  0.125 0.5 0  0.15625 0.5 0  0.1875 0.5 0  0.21875 0.5 0  0.25 0.5 0  0.28125 0.5 0  0.3125 0.5 0  0.34375 0.5 0  0.375 0.5 0  0.40625 0.5 0  0.4375 0.5 0  0.46875 0.5 0  0.5 0.5 0  0.53125 0.5 0  0.5625 0.5 0  0.59375 0.5 0  0.625 0.5 0  0.65625 0.5 0  0.6875 0.5 0  0.71875 0.5 0  0.75 0.5 0  0.78125 0.5 0  0.8125 0.5 0  0.84375 0.5 0  0.875 0.5 0  0.90625 0.5 0  0.9375 0.5 0  0.96875 0.5 0  1 0.5 0  0 0.53125 0  0.03125 0.53125 0  0.0625 0.53125 0  0.09375 0.53125 0  0.125 0.53125 0  0.15625 0.53125 0  0.1875 0.53125 0  0.21875 0.53125 0  0.25 0.53125 0  0.28125 0.53125 0  0.3125 0.53125 0  0.34375 0.53125 0  0.375 0.53125 0  0.40625 0.53125 0  0.4375 0.53125 0  0.46875 0.53125 0  0.5 0.53125 0  0.53125 0.53125 0  0.5625 0.53125 0  0.59375 0.53125 0  0.625 0.53125 0  0.65625 0.53125 0  0.6875 0.53125 0  0.71875 0.53125 0  0.75 0.53125 0  0.78125 0.531
[...]
<PointData  Scalars="ControlVisualisation"> 
<DataArray  type="Float64"  Name="ControlVisualisation"  format="ascii">3.0986739734063207e-01  3.1673961018314001e-01  3.0434517208626255e-01  3.0296450747858172e-01  2.8845660818233021e-01  2.7234195356238033e-01  2.5988229345972325e-01  2.4305871290228248e-01  2.2841836478950225e-01  2.1314681328714732e-01  2.0246063574714579e-01  1.8778413054816734e-01  1.8076891906562659e-01  1.7346469998919897e-01  1.7146625769193985e-01  1.6780342702939161e-01  1.6820798858138880e-01  1.6960758017760846e-01  1.7379826213685473e-01  1.7774731221382667e-01  1.8562826904724516e-01  1.9521890441237896e-01  2.0928074721766415e-01  2.2282592275913071e-01  2.4018661203745442e-01  2.5007946007572041e-01  2.6565079265660047e-01  2.7757060681465484e-01  2.9041904197966867e-01  3.0272226155848825e-01  3.0550094250732263e-01  3.1395103684845649e-01  3.0190274790939930e-01  3.1831342664031548e-01  3.0773665964272623e-01  2.9903443853330730e-01  3.0596322813257537e-01  2.8958053245156790e-01  2.7724649594577216e-01  2.6573161060637523e-01  2.4316945518070010e-01  2.2793492936052179e-01  2.2130832996290095e-01  1.9567071140891373e-01  1.9766012078625578e-01  1.7905147250982337e-01  1.7796626299558091e-01  1.7029145758171674e-01  1.7306963602950831e-01  1.6788980884871224e-01  1.7315273043616958e-01  1.7348687650085104e-01  1.7798790884002622e-01  1.8347377557277081e-01  1.9599335174077581e-01  1.9907692438916533e-01  2.2276097045771567e-01  2.3049214315082578e-01  2.4922584823481431e-01  2.6564637930166535e-01  2.7731969438349408e-01  2.8769427071898906e-01  3.0268719891800189e-01  2.9549590218709171e-01  2.9732105320655899e-01  3.1409209243881719e-01  3.1050027046475714e-01  3.0165162316872712e-01  3.2045631860283458e-01  2.8948298172064590e-01  2.8713736803902107e-01  2.8714705847032784e-01  2.5334560439728998e-01  2.4105028463607070e-01  2.3790377677664129e-01  2.0519082850693016e-01  2.0434000792212767e-01  1.8095078946467244e-01  1.7937731584201749e-01  1.6986127233162426e-01  1.6615479487110577e-01  1.6140851739453976e-01  1.6838708111972930e-01  1.6356581780525506e-01  1.6745197915502555e-01  1.7514851307909696e-01  1.8152100013737069e-01  1.8842229004704003e-01  2.0458958437567232e-01  2.1254692376422632e-01  2.3973363005246784e-01  2.4593594198448468e-01  2.6363625849446359e-01  2.8518589530868543e-01  2.8773006435664961e-01  2.9303453937177565e-01  3.1298547876217730e-01  2.9566146942671040e-01  3.0986324646913788e-01  3.1105360124135012e-01  3.1946049504829588e-01  3.0100472642026860e-01  2.8690742684940163e-01  2.8549820773577267e-01  2.7040533816083234e-01  2.5429370625600900e-01  2.3867726244721313e-01  2.1769075692300704e-01  2.1170288743327559e-01  1.8595753868843212e-01  1.8859990045436026e-01  1.8045945030153748e-01  1.7043553683894452e-01  1.6653452538563479e-01  1.7003517129108012e-01  1.6486272201548710e-01  1.6930465848247811e-01  1.6656617993138464e-01  1.7234928800414992e-01  1.8335094889976733e-01  1.9441954499160358e-01  1.9737137354848225e-01  2.1959495235959622e-01  2.2866857677409574e-01  2.4321226142032645e-01  2.6542437719752493e-01  2.7922881703866509e-01  2.9062123384691169e-01  2.9246775851636442e-01  2.9865895131332648e-01  3.0665036268205143e-01  3.0890100759796213e-01  3.0527507141781168e-01  3.1284229020773230e-01  3.0687836022320802e-01  2.8975030423125564e-01  2.7429876844690476e-01  2.8046147625829637e-01  2.4978929291288621e-01  2.2480282509143673e-01  2.3244477836312252e-01  2.0203258013790842e-01  1.9472260030175584e-01  1.8780800070742068e-01  1.7704169766389727e-01  1.7600276363854003e-01  1.6729353107318429e-01  1.6251889588016952e-01  1.7191001949341328e-01  1.5950020604696910e-01  1.6379032146286848e-01  1.6758509717023523e-01  1.7262080969970012e-01  1.8183157033656133e-01  1.9680739202479636e-01  2.0858521697131752e-01  2.3547448261800719e-01  2.2824136429113645e-01  2.5128347504006943e-01  2.8078451183939496e-01  2.7400310070464878e-01  2.9515682540029337e-01  3.0114925057103498e-01  3.0164749142614899e-01  3.0079050981751254e-01  3.0196711686563543e-01  3.0750741896795886e-01  3.1215622513890268e-01  2.8591561678859184e-01  2.8776690982900721e-01  2.8272365250327258e-01  2.4444368339627398e-01  2.3778142862465906e-01  2.1684712155652330e-01  2.0469503669891509e-01  1.7918605620567618e-01  1.7913112426742725e-01  1.7883377051549484e-01  1.6178072461367288e-01  1.5656949763937394e-01  1.6532982467687379e-01  1.6122292784606462e-01  1.6301317412770439e-01  1.5532799134726838e-01  1.5993055271601397e-01  1.7054909114391148e-01  1.7271350844458014e-01  1.7409686490103005e-01  2.0472461248270418e-01  2.2065417262137463e-01  2.3884118405721469e-01  2.4888478749534387e-01  2.8049079113396708e-01  2.8407556525081179e-01  2.8800466358864962e-01  3.0854472559329504e-01  2.9837091742363342e-01  2.9541170074814072e-01  3.0136025384201415e-01  3.0325653009074960e-01  2.9703819081378036e-01  2.8168951621089400e-01  2.7285954427120529e-01  2.6716548290020642e-01  2.3584723137076585e-01  2.0204888562187595e-01  2.2455132756204971e-01  1.8139223126292947e-01  1.7759054624279003e-01  1.7344837700400381e-01  1.6130112521694506e-01  1.5379280214953406e-01  1.6101792397407730e-01  1.5220946813370523e-01  1.6594428337641728e-01  1.5667029154891030e-01  1.6005814989083189e-01  1.6192078074134991e-01  1.6375585403547521e-01  1.7453980970169722e-01  1.7571559155681621e-01  1.8356375922887275e-01  2.2452510990295940e-01  2.1061778128624098e-01  2.4273266848872169e-01  2.6856717022671761e-01  2.7180477421580246e-01  2.9068981783764403e-01  2.9713677021642171e-01  2.9238387538105404e-01  2.9333131714689259e-01  2.9715957627858458e-01  2.9324903640461347e-01  2.8764356603467373e-01  2.7096645901754585e-01  2.6404385110130935e-01  2.6469721115324563e-01  2.0043226553014737e-01  2.2426184846446331e-01  1.9600323125118058e-01  1.8044255429767450e-01  1.4945588024669035e-01  1.5074228364370698e-01  1.5165039670909636e-01  1.4463966896983227e-01  1.3317516636448373e-01  1.3692015861721640e-01  1.4722932990294710e-01  1.3766347154630132e-01  1.3974399752370556e-01  1.4548144592237483e-01  1.6177487163686510e-01  1.5643973005382045e-01  1.5626693801290262e-01  1.7872121970702909e-01  1.9571776654769873e-01  2.2365209425484547e-01  2.1394341004106956e-01  2.6224120446987381e-01  2.5533239029139415e-01  2.7748613884158252e-01  2.9006030643750191e-01  2.8194889385432281e-01  2.9041510100846418e-01  2.9466180629727745e-01  2.8353839018148003e-01  2.8856075325021319e-01  2.6769934275646379e-01  2.6994168354605064e-01  2.3682480405321585e-01  2.2727102112764838e-01  1.9692188199107583e-01  1.9446937376368245e-01  1.5275011643266026e-01  1.3275566706460362e-01  1.5693722576136040e-01  1.3563100035176895e-01  1.2102926360467409e-01  1.1920015189319419e-01  1.2295041258559794e-01  1.1248380147513774e-01  1.1787989585440324e-01  1.2493101663708400e-01  1.2165097047227365e-01  1.3447264729113234e-01  1.6796348423532806e-01  1.4545109146189028e-01  1.5994250025411111e-01  1.9020965421783975e-01  1.9514112116877749e-01  2.3102622972617085e-01  2.4555156144115645e-01  2.5992503465160482e-01  2.6435933072362472e-01  2.8783837864491896e-01  2.7803529461790111e-01  2.9002642899279207e-01  2.8659895349037129e-01  2.8245167736539051e-01  2.7910789528832902e-01  2.6051611959881132e-01  2.3855350841742556e-01  2.5470758984671260e-01  2.0162649980206668e-01  1.8512381217968704e-01  1.7474529264498107e-01  1.3765342073480674e-01  1.3857958032118206e-01  1.3766338523233596e-01  1.2115941827544505e-01  1.1921273545061700e-01  1.0937895256146403e-01  1.1322763558970023e-01  1.1815072949323489e-01  1.0940260564963343e-01  9.5226536233649739e-02  1.1681490832076868e-01  1.0996122707328473e-01  1.2789651684547143e-01  1.5810611450703921e-01  1.5132696331055370e-01  1.8181186345045128e-01  1.8660194927481263e-01  2.0566209739164035e-01  2.5373144332833575e-01  2.4224164050293290e-01  2.6012082235135703e-01  2.7299700351850847e-01  2.7260536835305477e-01  2.8359864925578365e-01  2.8185068231546384e-01  2.7028763946491224e-01  2.6876670478772380e-01  2.3231095706754765e-01  2.5201980380742872e-01  2.2831718370729781e-01  1.7899181660906804e-01  1.6485544776109345e-01  1.5961327586731738e-01  1.3303911728863058e-01  1.1677590991609810e-01  1.3563284077377294e-01  1.1495898042891382e-01  9.1139519336301669e-02  1.0910862841263677e-01  8.7861197994663423e-02  1.0936921290511345e-01  9.2678281211764302e-02  9.0776562048966114e-02  7.1631594049217318e-02  1.0140093062753924e-01  1.0582808330166957e-01  1.1119340383266593e-01  1.5140056119489964e-01  1.6314460660351909e-01  1.8398100600298198e-01  1.9103931842668367e-01  2.2737769697123500e-01  2.4515794395728219e-01  2.3865661749164735e-01  2.6193756224874687e-01  2.5824354680889350e-01  2.7808017090393866e-01  2.7426548397412559e-01  2.6556474591878293e-01  2.5715335210162865e-01  2.4413628254099057e-01  2.3595229479057625e-01  2.1155649872188312e-01  1.7714830196221748e-01  1.6383995798809528e-01  1.6760894955826136e-01  1.0967006648930638e-01  1.1584079790304544e-01  1.1479927116159615e-01  5.5208270773774569e-02  6.9678442322312184e-02  6.8873282797304897e-02  6.6814510169016822e-02  5.1273700504609866e-02  9.6893653877544075e-02  6.5035277539342740e-02  7.4786723119057819e-02  5.9972795732788207e-02  9.9764802068770364e-02  9.6246063348727234e-02  1.1986700682004547e-01  1.6074795324475474e-01  1.6546369080766862e-01  2.1131165233288382e-01  2.1780798620233804e-01  2.3065519497872525e-01  2.4243820829418000e-01  2.4878235312537939e-01  2.5092932073541396e-01  2.7141756519531374e-01  2.6549124897760923e-01  2.6059924587141103e-01  2.5385270908922192e-01  2.3787683948901017e-01  2.2278618197622041e-01  2.2152103759037228e-01  1.7480206491240555e-01  1.7082975292886329e-01  1.2883045401955151e-01  8.0029530876153027e-02  8.2190491398233548e-02  3.2457370998022608e-02  3.0496592323952472e-02  4.3411888634201805e-02  5.4515772552981373e-02  4.5627750502906815e-02  3.8117614248833240e-02  4.0401712958611828e-02  7.3591192293529423e-02  5.7008152205016788e-02  6.3637122436043247e-02  5.8597709255223222e-02  8.1203400025846278e-02  1.0265687223935979e-01  1.4126763009862878e-01  1.4814773154360372e-01  1.8761039933559218e-01  2.4621266181033566e-01  2.2276780690549683e-01  2.4020593633797266e-01  2.4204420985775696e-01  2.4259334495086665e-01  2.6210575294445349e-01  2.6206800674829278e-01  2.4904467689144960e-01  2.5273514744781905e-01  2.2386411950485463e-01  2.2339614165661173e-01  2.0336997027373535e-01  1.6655567946685823e-01  1.3637032655114925e-01  8.7627229536012652e-02  7.2318725108446114e-02  4.2003147215596275e-02  3.3567317497007879e-02  1.6693679459221435e-02  3.0818634264771716e-02  4.9153713151838474e-02  1.1053649410403515e-02  1.8138940842894420e-02  1.7074895493239699e-02  4.7862847186267203e-02  3.3175599959814596e-02  3.1404484560562274e-02  5.0245875823013583e-02  3.4715865623201420e-02  8.0392655790420237e-02  1.3595554926265288e-01  1.4270639695891796e-01  1.5925491419183802e-01  2.1511128073535260e-01  2.3503191511294028e-01  2.2833878008428254e-01  2.4166689200493674e-01  2.2890389773859587e-01  2.5595600195849277e-01  2.5787375422670528e-01  2.5129719044773502e-01  2.4218137564324863e-01  2.1933931347310132e-01  2.0721255832371949e-01  1.9411090331386202e-01  1.6103188550804312e-01  1.0446121658862728e-01  9.4841528473018993e-02  6.7520069869328181e-02  6.1398331170766408e-02  2.0915727706544499e-02  1.7427787075750899e-02  3.6826853187854884e-02  7.9567885164335231e-02  3.2612669116156151e-03  3.8289777751242260e-05  1.2019426677704753e-02  2.0219036544098710e-02  2.2580020070463631e-02  1.3134744046187908e-02  2.6869565160846248e-02  3.5789469246582904e-02  2.7492075011935957e-02  1.1596913270408833e-01  1.4422712732372736e-01  1.6675705791489726e-01  1.9752399788353048e-01  2.1412357179291924e-01  2.3089074004379451e-01  2.2997795023650411e-01  2.2888692556555515e-01  2.4951641471634342e-01  2.5633090161700833e-01  2.4456797447215567e-01  2.4257889713250783e-01  2.2002672565586590e-01  2.0664629772190626e-01  2.0305983512146702e-01  1.4639399736854586e-01  1.0449502163943625e-01  7.4615640714982279e-02  7.2140165727052452e-02  3.8315074306527828e-02  9.3434408469052210e-04  4.6912555275078847e-03  1.0546129130926821e-03  3.4597947399273813e-04  2.3027422500512199e-04  6.4197259916952973e-04  5.7773036446537914e-03  1.3181904080334806e-02  7.3539702126306488e-03  2.0141063139500238e-03  1.9210150942231989e-02  2.6498227946960700e-02  3.8385294978895659e-02  7.5293171230374129e-02  1.2980189153541971e-01  1.6206745756556482e-01  2.0663870520947072e-01  2.1370512639417907e-01  2.2802921788762243e-01  2.3290969943041992e-01  2.1985492200938919e-01  2.4618995268023491e-01  2.5410480119650086e-01  2.4687694521578651e-01  2.4483730191306327e-01  2.1695739893173543e-01  2.1215842839484467e-01  1.9839437524798259e-01  1.5342712880867881e-01  9.7277286431823096e-02  7.1137951359911716e-02  5.9002853633701044e-02  1.5529358749236761e-02  2.4679120707879983e-03  4.6856686037243130e-04  3.2651581949602712e-04  2.3413273050523141e-04  1.3761277535043529e-04  1.0762968956941723e-04  1.1383928481611291e-04  1.7904124780569259e-04  3.8010726686231325e-04  7.2340219661790875e-04  1.5798778568865872e-03  2.2928731457307193e-02  4.8261187696591344e-02  8.6094575422968028e-02  1.3490059946453567e-01  1.6103601515213592e-01  1.9807953708724063e-01  2.1864221075547999e-01  2.2806023788890889e-01  2.3250228811295912e-01  2.2225116471348039e-01  2.4214682399116594e-01  2.5779882585967934e-01  2.4484053347192489e-01  2.4265539602393360e-01  2.2077678282546490e-01  2.0462458795874411e-01  1.9875346394345497e-01  1.4586743520639808e-01  1.0938924111791815e-01  6.6045361332963154e-02  3.4319198796749502e-02  1.5415176685226531e-02  2.2649534078809071e-03  1.1523156955786382e-03  1.0186545010529399e-03  1.9375046299392870e-03  7.2508606987391807e-03  1.2640135405401407e-02  6.0738465160788038e-04  2.2362795298727482e-04  2.9267755631624272e-04  4.9110921136814954e-04  1.6049131134100321e-03  2.1027635903549446e-02  3.3098627202989284e-02  9.0747326676580101e-02  1.3057671722175074e-01  1.6218037064518781e-01  2.0446594300911919e-01  2.0893520831559492e-01  2.2960483794103881e-01  2.3233892578840065e-01  2.1861445297219673e-01  2.4463002971366940e-01  2.6077896525081040e-01  2.5175756689351364e-01  2.4171000437158877e-01  2.2121098254135219e-01  2.0693482131919810e-01  1.8682140373855852e-01  1.5504282824610979e-01  1.1165045831677103e-01  9.4935605014428243e-02  3.7944475878579707e-02  2.0724702387029982e-02  1.7672965493679738e-02  3.3708783557902841e-02  4.2552965792640181e-02  7.0621354980556425e-03  1.4715316234089615e-03  8.5873508785142341e-03  2.1562923487044791e-03  1.8517085994247812e-03  1.5002099378958040e-02  1.7010160462251053e-02  1.6837019951881461e-02  2.1274434192672654e-02  5.5813766835900794e-02  1.0444658696643692e-01  1.4125208205298687e-01  1.6164152150126906e-01  1.9109024860869908e-01  2.1496614332816660e-01  2.2955509598301910e-01  2.2956838276983346e-01  2.2743059860297121e-01  2.4631216918228993e-01  2.6654152034717848e-01  2.4954610744871680e-01  2.5283154770083316e-01  2.2650497736245448e-01  2.2419154225111937e-01  1.9254662672871325e-01  1.5336299473754245e-01  1.4164312278231944e-01  1.0733313559606236e-01  6.6938206931282926e-02  2.6084987318985016e-02  3.3213784646579286e-02  4.1713655055505824e-02  4.1984859448291501e-02  2.4201183722844681e-02  1.3836165934070138e-02  3.5882025114400577e-02  3.2795997089204589e-02  3.5723458097383608e-02  3.8578501515684351e-02  4.5500409410221265e-02  3.3245115893569537e-02  5.0439918816869697e-02  6.1144314679277480e-02  1.3162365517292599e-01  1.6025786092811051e-01  1.6908401656545186e-01  2.0584725180910740e-01  2.2607569018765353e-01  2.2958898432913299e-01  2.4310707321059077e-01  2.2409831245628320e-01  2.5193774172589883e-01  2.7228406950990591e-01  2.6096536824530331e-01  2.5120093379277397e-01  2.4341276846329551e-01  2.3080516984346539e-01  2.1673852905185365e-01  1.4908327064932445e-01  1.5295359628290189e-01  1.4079271647055666e-01  9.4093356145666995e-02  7.3147977642004203e-02  4.2520615230079217e-02  5.0353967189480472e-02  5.2046402099558076e-02  5.4031351307127634e-02  6.0510256198505044e-02  7.5882257785162166e-02  7.3535106906606820e-02  7.5549629230434803e-02  6.8301244348599133e-02  7.0478068375122424e-02  7.4237942567766335e-02  9.2177449215798790e-02  1.1276710299957068e-01  1.7878181105540442e-01  1.7444966425536829e-01  1.5795841769951358e-01  2.2190833643896440e-01  2.2940437378235073e-01  2.4679898676506498e-01  2.3949180113525598e-01  2.3911178957698104e-01  2.5575545596594396e-01  2.8233975481628859e-01  2.6736770275188393e-01  2.5343116873751464e-01  2.4323144690834264e-01  2.4659262031628509e-01  2.2155963169410614e-01  1.6808175917975365e-01  1.3486330147495568e-01  1.5415205167535739e-01  1.1142631443188242e-01  1.0183376818298616e-01  1.0051161521410083e-01  6.9596078955550672e-02  7.8703767041761685e-02  8.5220026373435925e-02  1.0726356406555299e-01  1.0542929762867723e-01  9.4518827264025801e-02  8.5109770173882368e-02  8.7905598390155062e-02  7.8709576293346351e-02  1.1526780085475492e-01  1.1050558700071697e-01  1.3122838142420257e-01  1.7560126553869396e-01  1.2446974530668839e-01  1.7702716861072126e-01  2.3786571435618481e-01  2.4230457185456469e-01  2.4197338513872263e-01  2.4697844661064544e-01  2.4369620837432873e-01  2.6557002700591265e-01  2.9012868139256398e-01  2.7120780860309762e-01  2.6519576516039423e-01  2.3250636612947068e-01  2.5607420202889580e-01  2.3884968581733923e-01  1.8868314217532312e-01  1.5903772022422155e-01  1.4541879742271879e-01  1.3477657550384450e-01  1.1047147585303574e-01  1.2031927826359873e-01  1.1832234109303803e-01  1.0103704482038087e-01  1.1032471243833440e-01  1.1158932769928530e-01  1.0726250962291133e-01  1.0570546853108179e-01  9.9167322573246591e-02  9.1078554393609568e-02  1.0379592694236781e-01  1.1085402216759829e-01  1.0353983268179040e-01  1.4796839321837210e-01  1.3993646465243101e-01  1.5668237837318605e-01  2.2312824661533345e-01  2.4359148972072764e-01  2.4288960852127039e-01  2.3779409941748234e-01  2.5624140944290119e-01  2.5050753036997164e-01  2.7379601740844312e-01  2.9449621555498062e-01  2.8680755757367721e-01  2.7569442740119487e-01  2.5734414298110697e-01  2.4660916520546777e-01  2.6207972317053779e-01  2.1093248329630904e-01  1.9705072794761480e-01  1.7956326008958201e-01  1.4683957675597198e-01  1.5454877813884410e-01  1.4182050632288329e-01  1.3297705462685494e-01  1.4350176790734026e-01  1.2925079904558276e-01  1.2477208062827873e-01  1.3456789917098255e-01  1.2424332312306592e-01  1.2107428585122521e-01  1.3684737936617658e-01  1.2243251094457810e-01  1.3681102720648000e-01  1.5835091401696763e-01  1.5906979566281260e-01  1.7625764104119562e-01  2.1804849030273679e-01  2.2711663340765467e-01  2.5278164398449043e-01  2.4127857252530471e-01  2.5730097167714028e-01  2.6503306284410932e-01  2.6399235069392185e-01  2.8035492609465318e-01  3.0099516703534634e-01  2.8849249904138080e-01  2.9058666954162904e-01  2.6339032939374168e-01  2.6863662249959458e-01  2.4678783002602878e-01  2.3302301151859078e-01  2.0735548382203312e-01  2.0695153755918935e-01  1.6785582593170006e-01  1.5619303729602652e-01  1.8046173024748705e-01  1.5910809028251416e-01  1.4649979935165625e-01  1.5598973661173776e-01  1.5529870197081527e-01  1.4369045218720361e-01  1.5083242595178212e-01  1.5407693355869265e-01  1.4484788127970283e-01  1.6027483759493324e-01  1.8101605712359314e-01  1.6630675095877701e-01  1.7380191341027532e-01  2.1245667027481902e-01  2.1563502481917976e-01  2.3458996323786291e-01  2.4441075492725189e-01  2.5978149903990072e-01  2.5992246168829858e-01  2.7586550444396907e-01  2.6842680106602523e-01  2.8879371157423978e-01  2.9937267079602770e-01  2.9583067996462720e-01  2.9064658109364327e-01  2.721458176