<?xml version="1.0"?>
<VTKFile type="UnstructuredGrid"  version="0.1"  >
<UnstructuredGrid>
<Piece  NumberOfPoints="1089" NumberOfCells="2048">
<Points>
<DataArray  type="Float64"  NumberOfComponents="3"  format="ascii">0 0 0  0.03125 0 0  0.0625 0 0  0.09375 0 0  0.125 0 0  0.15625 0 0  0.1875 0 0  0.21875 0 0  0.25 0 0  0.28125 0 0  0.3125 0 0  0.34375 0 0  0.375 0 0  0.40625 0 0  0.4375 0 0  0.46875 0 0  0.5 0 0  0.53125 0 0  0.5625 0 0  0.59375 0 0  0.625 0 0  0.65625 0 0  0.6875 0 0  0.71875 0 0  0.75 0 0  0.78125 0 0  0.8125 0 0  0.84375 0 0  0.875 0 0  0.90625 0 0  0.9375 0 0  0.96875 0 0  1 0 0  0 0.03125 0  0.03125 0.03125 0  0.0625 0.03125 0  0.09375 0.03125 0  0.125 0.03125 0  0.15625 0.03125 0  0.1875 0.03125 0  0.21875 0.03125 0  0.25 0.03125 0  0.28125 0.03125 0  0.3125 0.03125 0  0.34375 0.03125 0  0.375 0.03125 0  0.40625 0.03125 0  0.4375 0.03125 0  0.46875 0.03125 0  0.5 0.03125 0  0.53125 0.03125 0  0.5625 0.03125 0  0.59375 0.03125 0  0.625 0.03125 0  0.65625 0.03125 0  0.6875 0.03125 0  0.71875 0.03125 0  0.75 0.03125 0  0.78125 0.03125 0  0.8125 0.03125 0  0.84375 0.03125 0  0.875 0.03125 0  0.90625 0.03125 0  0.9375 0.03125 0  0.96875 0.03125 0  1 0.03125 0  0 0.0625 0  0.03125 0.0625 0  0.0625 0.0625 0  0.09375 0.0625 0  0.125 0.0625 0  0.15625 0.0625 0  0.1875 0.0625 0  0.21875 0.0625 0  0.25 0.0625 0  0.28125 0.0625 0  0.3125 0.0625 0  0.34375 0.0625 0  0.375 0.0625 0  0.40625 0.0625 0  0.4375 0.0625 0  0.46875 0.0625 0  0.5 0.0625 0  0.53125 0.0625 0  0.5625 0.0625 0  0.59375 0.0625 0  0.625 0.0625 0  0.65625 0.0625 0  0.6875 0.0625 0  0.71875 0.0625 0  0.75 0.0625 0  0.78125 0.0625 0  0.8125 0.0625 0  0.84375 0.0625 0  0.875 0.0625 0  0.90625 0.0625 0  0.9375 0.0625 0  0.96875 0.0625 0  1 0.0625 0  0 0.09375 0  0.03125 0.09375 0  0.0625 0.09375 0  0.09375 0.09375 0  0.125 0.09375 0  0.15625 0.09375 0  0.1875 0.09375 0  0.21875 0.09375 0  0.25 0.09375 0  0.28125 0.09375 0  0.3125 0.09375 0  0.34375 0.09375 0  0.375 0.09375 0  0.40625 0.09375 0  0.4375 0.09375 0  0.46875 0.09375 0  0.5 0.09375 0  0.53125 0.09375 0  0.5625 0.09375 0  0.59375 0.09375 0  0.625 0.09375 0  0.65625 0.09375 0  0.6875 0.09375 0  0.71875 0.09375 0  0.75 0.09375 0  0.78125 0.09375 0  0.8125 0.09375 0  0.84375 0.09375 0  0.875 0.09375 0  0.90625 0.09375 0  0.9375 0.09375 0  0.96875 0.09375 0  1 0.09375 0  0 0.125 0  0.03125 0.125 0  0.0625 0.125 0  0.09375 0.125 0  0.125 0.125 0  0.15625 0.125 0  0.1875 0.125 0  0.21875 0.125 0  0.25 0.125 0  0.28125 0.125 0  0.3125 0.125 0  0.34375 0.125 0  0.375 0.125 0  0.40625 0.125 0  0.4375 0.125 0  0.46875 0.125 0  0.5 0.125 0  0.53125 0.125 0  0.5625 0.125 0  0.59375 0.125 0  0.625 0.125 0  0.65625 0.125 0  0.6875 0.125 0  0.71875 0.125 0  0.75 0.125 0  0.78125 0.125 0  0.8125 0.125 0  0.84375 0.125 0  0.875 0.125 0  0.90625 0.125 0  0.9375 0.125 0  0.96875 0.125 0  1 0.125 0  0 0.15625 0  0.03125 0.15625 0  0.0625 0.15625 0  0.09375 0.15625 0  0.125 0.15625 0  0.15625 0.15625 0  0.1875 0.15625 0  0.21875 0.15625 0  0.25 0.15625 0  0.28125 0.15625 0  0.3125 0.15625 0  0.34375 0.15625 0  0.375 0.15625 0  0.40625 0.15625 0  0.4375 0.15625 0  0.46875 0.15625 0  0.5 0.15625 0  0.53125 0.15625 0  0.5625 0.15625 0  0.59375 0.15625 0  0.625 0.15625 0  0.65625 0.15625 0  0.6875 0.15625 0  0.71875 0.15625 0  0.75 0.15625 0  0.78125 0.15625 0  0.8125 0.15625 0  0.84375 0.15625 0  0.875 0.15625 0  0.90625 0.15625 0  0.9375 0.15625 0  0.96875 0.15625 0  1 0.15625 0  0 0.1875 0  0.03125 0.1875 0  0.0625 0.1875 0  0.09375 0.1875 0  0.125 0.1875 0  0.15625 0.1875 0  0.1875 0.1875 0  0.21875 0.1875 0  0.25 0.1875 0  0.28125 0.1875 0  0.3125 0.1875 0  0.34375 0.1875 0  0.375 0.1875 0  0.40625 0.1875 0  0.4375 0.1875 0  0.46875 0.1875 0  0.5 0.1875 0  0.53125 0.1875 0  0.5625 0.1875 0  0.59375 0.1875 0  0.625 0.1875 0  0.65625 0.1875 0  0.6875 0.1875 0  0.71875 0.1875 0  0.75 0.1875 0  0.78125 0.1875 0  0.8125 0.1875 0  0.84375 0.1875 0  0.875 0.1875 0  0.90625 0.1875 0  0.9375 0.1875 0  0.96875 0.1875 0  1 0.1875 0  0 0.21875 0  0.03125 0.21875 0  0.0625 0.21875 0  0.09375 0.21875 0  0.125 0.21875 0  0.15625 0.21875 0  0.1875 0.21875 0  0.21875 0.21875 0  0.25 0.21875 0  0.28125 0.21875 0  0.3125 0.21875 0  0.34375 0.21875 0  0.375 0.21875 0  0.40625 0.21875 0  0.4375 0.21875 0  0.46875 0.21875 0  0.5 0.21875 0  0.53125 0.21875 0  0.5625 0.21875 0  0.59375 0.21875 0  0.625 0.21875 0  0.65625 0.21875 0  0.6875 0.21875 0  0.71875 0.21875 0  0.75 0.21875 0  0.78125 0.21875 0  0.8125 0.21875 0  0.84375 0.21875 0  0.875 0.21875 0  0.90625 0.21875 0  0.9375 0.21875 0  0.96875 0.21875 0  1 0.21875 0  0 0.25 0  0.03125 0.25 0  0.0625 0.25 0  0.09375 0.25 0  0.125 0.25 0  0.15625 0.25 0  0.1875 0.25 0  0.21875 0.25 0  0.25 0.25 0  0.28125 0.25 0  0.3125 0.25 0  0.34375 0.25 0  0.375 0.25 0  0.40625 0.25 0  0.4375 0.25 0  0.46875 0.25 0  0.5 0.25 0  0.53125 0.25 0  0.5625 0.25 0  0.59375 0.25 0  0.625 0.25 0  0.65625 0.25 0  0.6875 0.25 0  0.71875 0.25 0  0.75 0.25 0  0.78125 0.25 0  0.8125 0.25 0  0.84375 0.25 0  0.875 0.25 0  0.90625 0.25 0  0.9375 0.25 0  0.96875 0.25 0  1 0.25 0  0 0.28125 0  0.03125 0.28125 0  0.0625 0.28125 0  0.09375 0.28125 0  0.125 0.28125 0  0.15625 0.28125 0  0.1875 0.28125 0  0.21875 0.28125 0  0.25 0.28125 0  0.28125 0.28125 0  0.3125 0.28125 0  0.34375 0.28125 0  0.375 0.28125 0  0.40625 0.28125 0  0.4375 0.28125 0  0.46875 0.28125 0  0.5 0.28125 0  0.53125 0.28125 0  0.5625 0.28125 0  0.59375 0.28125 0  0.625 0.28125 0  0.65625 0.28125 0  0.6875 0.28125 0  0.71875 0.28125 0  0.75 0.28125 0  0.78125 0.28125 0  0.8125 0.28125 0  0.84375 0.28125 0  0.875 0.28125 0  0.90625 0.28125 0  0.9375 0.28125 0  0.96875 0.28125 0  1 0.28125 0  0 0.3125 0  0.03125 0.3125 0  0.0625 0.3125 0  0.09375 0.3125 0  0.125 0.3125 0  0.15625 0.3125 0  0.1875 0.3125 0  0.21875 0.3125 0  0.25 0.3125 0  0.28125 0.3125 0  0.3125 0.3125 0  0.34375 0.3125 0  0.375 0.3125 0  0.40625 0.3125 0  0.4375 0.3125 0  0.46875 0.3125 0  0.5 0.3125 0  0.53125 0.3125 0  0.5625 0.3125 0  0.59375 0.3125 0  0.625 0.3125 0  0.65625 0.3125 0  0.6875 0.3125 0  0.71875 0.3125 0  0.75 0.3125 0  0.78125 0.3125 0  0.8125 0.3125 0  0.84375 0.3125 0  0.875 0.3125 0  0.90625 0.3125 0  0.9375 0.3125 0  0.96875 0.3125 0  1 0.3125 0  0 0.34375 0  0.03125 0.34375 0  0.0625 0.34375 0  0.09375 0.34375 0  0.125 0.34375 0  0.15625 0.34375 0  0.1875 0.34375 0  0.21875 0.34375 0  0.25 0.34375 0  0.28125 0.34375 0  0.3125 0.34375 0  0.34375 0.34375 0  0.375 0.34375 0  0.40625 0.34375 0  0.4375 0.34375 0  0.46875 0.34375 0  0.5 0.34375 0  0.53125 0.34375 0  0.5625 0.34375 0  0.59375 0.34375 0  0.625 0.34375 0  0.65625 0.34375 0  0.6875 0.34375 0  0.71875 0.34375 0  0.75 0.34375 0  0.78125 0.34375 0  0.8125 0.34375 0  0.84375 0.34375 0  0.875 0.34375 0  0.90625 0.34375 0  0.9375 0.34375 0  0.96875 0.34375 0  1 0.34375 0  0 0.375 0  0.03125 0.375 0  0.0625 0.375 0  0.09375 0.375 0  0.125 0.375 0  0.15625 0.375 0  0.1875 0.375 0  0.21875 0.375 0  0.25 0.375 0  0.28125 0.375 0  0.3125 0.375 0  0.34375 0.375 0  0.375 0.375 0  0.40625 0.375 0  0.4375 0.375 0  0.46875 0.375 0  0.5 0.375 0  0.53125 0.375 0  0.5625 0.375 0  0.59375 0.375 0  0.625 0.375 0  0.65625 0.375 0  0.6875 0.375 0  0.71875 0.375 0  0.75 0.375 0  0.78125 0.375 0  0.8125 0.375 0  0.84375 0.375 0  0.875 0.375 0  0.90625 0.375 0  0.9375 0.375 0  0.96875 0.375 0  1 0.375 0  0 0.40625 0  0.03125 0.40625 0  0.0625 0.40625 0  0.09375 0.40625 0  0.125 0.40625 0  0.15625 0.40625 0  0.1875 0.40625 0  0.21875 0.40625 0  0.25 0.40625 0  0.28125 0.40625 0  0.3125 0.40625 0  0.34375 0.40625 0  0.375 0.40625 0  0.40625 0.40625 0  0.4375 0.40625 0  0.46875 0.40625 0  0.5 0.40625 0  0.53125 0.40625 0  0.5625 0.40625 0  0.59375 0.40625 0  0.625 0.40625 0  0.65625 0.40625 0  0.6875 0.40625 0  0.71875 0.40625 0  0.75 0.40625 0  0.78125 0.40625 0  0.8125 0.40625 0  0.84375 0.40625 0  0.875 0.40625 0  0.90625 0.40625 0  0.9375 0.40625 0  0.96875 0.40625 0  1 0.40625 0  0 0.4375 0  0.03125 0.4375 0  0.0625 0.4375 0  0.09375 0.4375 0  0.125 0.4375 0  0.15625 0.4375 0  0.1875 0.4375 0  0.21875 0.4375 0  0.25 0.4375 0  0.28125 0.4375 0  0.3125 0.4375 0  0.34375 0.4375 0  0.375 0.4375 0  0.40625 0.4375 0  0.4375 0.4375 0  0.46875 0.4375 0  0.5 0.4375 0  0.53125 0.4375 0  0.5625 0.4375 0  0.59375 0.4375 0  0.625 0.4375 0  0.65625 0.4375 0  0.6875 0.4375 0  0.71875 0.4375 0  0.75 0.4375 0  0.78125 0.4375 0  0.8125 0.4375 0  0.84375 0.4375 0  0.875 0.4375 0  0.90625 0.4375 0  0.9375 0.4375 0  0.96875 0.4375 0  1 0.4375 0  0 0.46875 0  0.03125 0.46875 0  0.0625 0.46875 0  0.09375 0.46875 0  0.125 0.46875 0  0.15625 0.46875 0  0.1875 0.46875 0  0.21875 0.46875 0  0.25 0.46875 0  0.28125 0.46875 0  0.3125 0.46875 0  0.34375 0.46875 0  0.375 0.46875 0  0.40625 0.46875 0  0.4375 0.46875 0  0.46875 0.46875 0  0.5 0.46875 0  0.53125 0.46875 0  0.5625 0.46875 0  0.59375 0.46875 0  0.625 0.46875 0  0.65625 0.46875 0  0.6875 0.46875 0  0.71875 0.46875 0  0.75 0.46875 0  0.78125 0.46875 0  0.8125 0.46875 0  0.84375 0.46875 0  0.875 0.46875 0  0.90625 0.46875 0  0.9375 0.46875 0  0.96875 0.46875 0  1 0.46875 0  0 0.5 0  0.03125 0.5 0  0.0625 0.5 0  0.09375 0.5 0  0.125 0.5 0  0.15625 0.5 0  0.1875 0.5 0  0.21875 0.5 0  0.25 0.5 0  0.28125 0.5 0  0.3125 0.5 0  0.34375 0.5 0  0.375 0.5 0  0.40625 0.5 0  0.4375 0.5 0  0.46875 0.5 0  0.5 0.5 0  0.53125 0.5 0  0.5625 0.5 0  0.59375 0.5 0  0.625 0.5 0  0.65625 0.5 0  0.6875 0.5 0  0.71875 0.5 0  0.75 0.5 0  0.78125 0.5 0  0.8125 0.5 0  0.84375 0.5 0  0.875 0.5 0  0.90625 0.5 0  0.9375 0.5 0  0.96875 0.5 0  1 0.5 0  0 0.53125 0  0.03125 0.53125 0  0.0625 0.53125 0  0.09375 0.53125 0  0.125 0.53125 0  0.15625 0.53125 0  0.1875 0.53125 0  0.21875 0.53125 0  0.25 0.53125 0  0.28125 0.53125 0  0.3125 0.53125 0  0.34375 0.53125 0  0.375 0.53125 0  0.40625 0.53125 0  0.4375 0.53125 0  0.46875 0.53125 0  0.5 0.53125 0  0.53125 0.53125 0  0.5625 0.53125 0  0.59375 0.53125 0  0.625 0.53125 0  0.65625 0.53125 0  0.6875 0.53125 0  0.71875 0.53125 0  0.75 0.53125 0  0.78125 0.531
[...]
<PointData  Scalars="ControlVisualisation"> 
<DataArray  type="Float64"  Name="ControlVisualisation"  format="ascii">5.1127489833956496e-01  5.0293923463291224e-01  4.9213799171294736e-01  4.7952622217691415e-01  4.6221471962485011e-01  4.4405605365025325e-01  4.2363855278219609e-01  4.0233217361738000e-01  3.8090458943450328e-01  3.6091277215666712e-01  3.4100782002436869e-01  3.2330302106754238e-01  3.0804962177493905e-01  2.9587136247842327e-01  2.8784163393817319e-01  2.8278619359141044e-01  2.8197254865809884e-01  2.8395417555723229e-01  2.9035694594217648e-01  3.0013228540664244e-01  3.1430037943491057e-01  3.3189476749348429e-01  3.5200338622458766e-01  3.7386082470537912e-01  3.9570907153637952e-01  4.1804960329988849e-01  4.4027110051310636e-01  4.6130701972638277e-01  4.7958555488456123e-01  4.9634201665740157e-01  5.0784954229476686e-01  5.1746673735375859e-01  5.2388600786227246e-01  5.0315858243732381e-01  4.9656533602023356e-01  4.9076372111171240e-01  4.7326125589150825e-01  4.6100516341729236e-01  4.4152402464245755e-01  4.2125708289037861e-01  3.9858348082946721e-01  3.7910942559116956e-01  3.5670420185835322e-01  3.3882476563940284e-01  3.2045465491578273e-01  3.0503471240951380e-01  2.9466136143497207e-01  2.8486960563624675e-01  2.8177462416499338e-01  2.7910782021205305e-01  2.8309884886505077e-01  2.8777000760333410e-01  2.9925833080787395e-01  3.1196448167766216e-01  3.2967653968178801e-01  3.5027375215688605e-01  3.7072070678016761e-01  3.9405483292484578e-01  4.1570344224815992e-01  4.3879544446557428e-01  4.5967394805924644e-01  4.7876729773922838e-01  4.9146009787262157e-01  5.0703124595233473e-01  5.1153021020547562e-01  5.1750672225941585e-01  4.9302936058235464e-01  4.9180836001357625e-01  4.7558532762865968e-01  4.6949580355432580e-01  4.5006851892256872e-01  4.3378959513975707e-01  4.1256785825719983e-01  3.9546950493410060e-01  3.7176394108451899e-01  3.5384624658462810e-01  3.3282216137262349e-01  3.1671432650174308e-01  3.0341828180669939e-01  2.8933027102548559e-01  2.8413103031513648e-01  2.7683531486348711e-01  2.7826581945912832e-01  2.7821580132260415e-01  2.8705722830057873e-01  2.9410494257904796e-01  3.1032307998018477e-01  3.2578307183942262e-01  3.4463671101268134e-01  3.6755193546339376e-01  3.8750835561338121e-01  4.1191993603791405e-01  4.3125629441263452e-01  4.5221287050073350e-01  4.6912784941069013e-01  4.8669437618024203e-01  4.9423642894449349e-01  5.0753065588135171e-01  5.0788092203465884e-01  4.8223335645965354e-01  4.7670498508798692e-01  4.7177350198500717e-01  4.5719127505198776e-01  4.4608484569589552e-01  4.2720282017516581e-01  4.0967215594651829e-01  3.8520905049512744e-01  3.6613467491547791e-01  3.4208920218122030e-01  3.2642943323791856e-01  3.0849567860672444e-01  2.9245184953214620e-01  2.8471492109130525e-01  2.7263330246246925e-01  2.7221242719024463e-01  2.6691731079405573e-01  2.7345001864546392e-01  2.7545657897112019e-01  2.8896434113211733e-01  2.9889442864854249e-01  3.1761242688976732e-01  3.3669875181073566e-01  3.5606086661930408e-01  3.8124754020378726e-01  4.0187646656606696e-01  4.2682863748373129e-01  4.4598593786176782e-01  4.6437938317083965e-01  4.7503570278608054e-01  4.8770883216749711e-01  4.9322559415691247e-01  4.9734343483560578e-01  4.6863829228981080e-01  4.6731345440642025e-01  4.5492783495205236e-01  4.4964788549088980e-01  4.3353494825115951e-01  4.1590949835173341e-01  3.9349916789553369e-01  3.7805656590221126e-01  3.5166517734642744e-01  3.3667589460809061e-01  3.1424946150741623e-01  2.9666918163949574e-01  2.8676965099846013e-01  2.7008546411677820e-01  2.6691122330381833e-01  2.5872191069360995e-01  2.6068509216913222e-01  2.5998459771565130e-01  2.6912209825156308e-01  2.7483343401647070e-01  2.9192578955735426e-01  3.0519084946499342e-01  3.2498001605683630e-01  3.4790537418873468e-01  3.6781269744241257e-01  3.9403383065917502e-01  4.1147816930177977e-01  4.3406776460954904e-01  4.5256873328377079e-01  4.6706676283416571e-01  4.7232633171096838e-01  4.8278932277803099e-01  4.8294480037995297e-01  4.5525689632991939e-01  4.5236042043493602e-01  4.4379502424369272e-01  4.3738064440763269e-01  4.2129012338386618e-01  4.0209787161718774e-01  3.8957865530422420e-01  3.6211740998967112e-01  3.4476331255296616e-01  3.1877165327329116e-01  3.0023850421719661e-01  2.8568738713849784e-01  2.6862065851394434e-01  2.6032380383474335e-01  2.5060574970321942e-01  2.4826004428506707e-01  2.4427467519130022e-01  2.4910198265792760e-01  2.5240493892531907e-01  2.6311879337578314e-01  2.7426957870376928e-01  2.9137670177085201e-01  3.1044159902611784e-01  3.2919347386014192e-01  3.5675443900951875e-01  3.7851268834363128e-01  4.0475471137781849e-01  4.2006320552181414e-01  4.3856008754352349e-01  4.5367160922352473e-01  4.5923518427684334e-01  4.6755572360063491e-01  4.6828058575537557e-01  4.4063604981611898e-01  4.3912278507906471e-01  4.3013101155628836e-01  4.2441156848904893e-01  4.0416149164437698e-01  3.9597707981107111e-01  3.6786419338050741e-01  3.5132846458684930e-01  3.2386091691419422e-01  3.0538362910773759e-01  2.8493910287500174e-01  2.6647583074447700e-01  2.5582611472240241e-01  2.4038315075651126e-01  2.3659773822490651e-01  2.2847069934504546e-01  2.3105734497686800e-01  2.2914417364220271e-01  2.3800742934586280e-01  2.4244163765160906e-01  2.5968107396606738e-01  2.7136007881852536e-01  2.9250137265221871e-01  3.1576605391119222e-01  3.3449385729048492e-01  3.6460240913620034e-01  3.8350345463140056e-01  4.1068075504888335e-01  4.2193794606204854e-01  4.3953530185399803e-01  4.4411084759617236e-01  4.5201997494376139e-01  4.5243081418003817e-01  4.2681330774072102e-01  4.2467504465177563e-01  4.1810671883110007e-01  4.0651410463298127e-01  3.9662280402356009e-01  3.7621333336983953e-01  3.5727312460100075e-01  3.3297057530260127e-01  3.1221566795665889e-01  2.8479356706901382e-01  2.6339099688635476e-01  2.4867413585974449e-01  2.2924123770402333e-01  2.2212343435176124e-01  2.1200465963580031e-01  2.1091533371223278e-01  2.0564670563022339e-01  2.1123295781587384e-01  2.1334114271884019e-01  2.2374348433601687e-01  2.3291158143709192e-01  2.5294322531364244e-01  2.6835817627987474e-01  2.9396833675641143e-01  3.2113371164105847e-01  3.4458158562221725e-01  3.7038915931629424e-01  3.9035573293240061e-01  4.1045310972957538e-01  4.2144563526556261e-01  4.3053089870725170e-01  4.3616028657150313e-01  4.3676865948638682e-01  4.1421922912611159e-01  4.1265922847864578e-01  4.0266021321230111e-01  3.9652217102724946e-01  3.7967025806797766e-01  3.6433780140747118e-01  3.3681895684105834e-01  3.2013766763764434e-01  2.8591944858492246e-01  2.6223678791095095e-01  2.4400120777721362e-01  2.2005412838936975e-01  2.1004808727248356e-01  1.9615173550205048e-01  1.9078455797850524e-01  1.8440463739527646e-01  1.8587501651790819e-01  1.8439461721838085e-01  1.9045022185652560e-01  1.9710106072064112e-01  2.1156356440677945e-01  2.2499658912192871e-01  2.4774360959479472e-01  2.6914665207235361e-01  2.9518062362727460e-01  3.2850678756103241e-01  3.4904092493723476e-01  3.7652399571443895e-01  3.9265011008913703e-01  4.0762576527163069e-01  4.1417413062644265e-01  4.2270567505517509e-01  4.2221361202825647e-01  4.0381945959912990e-01  4.0006065302966015e-01  3.9222759988585587e-01  3.8048185927207273e-01  3.6808002328477374e-01  3.4382914727835778e-01  3.2507477622605913e-01  2.9706252706969910e-01  2.6530126503253942e-01  2.4556222934198216e-01  2.1373201087735305e-01  1.9649271181233599e-01  1.7757176307449116e-01  1.6862687071488902e-01  1.5949038114721098e-01  1.6035319778605384e-01  1.5512286394723040e-01  1.5908570610706393e-01  1.6145867236814040e-01  1.6776847418782498e-01  1.7909349961776444e-01  1.9923571248967045e-01  2.1781234612128206e-01  2.4915951515473994e-01  2.7277998890498451e-01  3.0516513102451331e-01  3.3303566117848743e-01  3.5487841756869393e-01  3.7877147522521082e-01  3.9057643727988250e-01  4.0022133528672243e-01  4.0823094466318732e-01  4.0979831700260250e-01  3.9462355068461186e-01  3.9098073969042457e-01  3.8039548481989172e-01  3.7106099289361721e-01  3.5359358647359729e-01  3.3294608290489552e-01  3.0852553339180044e-01  2.7736465599492638e-01  2.5028810911768368e-01  2.1416236284095241e-01  1.8679642048283918e-01  1.6055005172864503e-01  1.4762757768660303e-01  1.3516294237081752e-01  1.2933105897871755e-01  1.2954871883007618e-01  1.2379100826201583e-01  1.3100179308705689e-01  1.2734059846195248e-01  1.3917234619858990e-01  1.4769395741575969e-01  1.6443445101819237e-01  1.9093091100384585e-01  2.1755601891783580e-01  2.5414087390242590e-01  2.8321821623920135e-01  3.1527396061247526e-01  3.3959402478269313e-01  3.6219164301841772e-01  3.7812438236833151e-01  3.8661862554942256e-01  3.9589345972748363e-01  3.9813186305419568e-01  3.8748379527990323e-01  3.8294553421910110e-01  3.7136001427775106e-01  3.6077143724305832e-01  3.4134300980586968e-01  3.2085826106659648e-01  2.9036157071688090e-01  2.6565775627914351e-01  2.2230325178102164e-01  1.9112227165658865e-01  1.5369603842901280e-01  1.2991274824924107e-01  1.0900878200957070e-01  9.5287876719031148e-02  9.2537510473192516e-02  9.3211328624465212e-02  9.4351375486200956e-02  9.3957327281402825e-02  9.7188921043776008e-02  9.7709115034152749e-02  1.1374646686960949e-01  1.3103937775363811e-01  1.5713084415311773e-01  1.9342229068338979e-01  2.2519413381658290e-01  2.6828066351722646e-01  2.9394954026492132e-01  3.2543139258856468e-01  3.4591722774634720e-01  3.6499862072325567e-01  3.7412534184808466e-01  3.8526020568418456e-01  3.8766444419128515e-01  3.8245874795997092e-01  3.7590152660788845e-01  3.6619830835641703e-01  3.4994680425390134e-01  3.3614353861745289e-01  3.0626211344477550e-01  2.8506973846213912e-01  2.4379759226360145e-01  2.0730205339138813e-01  1.6602613497477187e-01  1.2684415626637652e-01  9.3814515027476314e-02  6.6931513531499273e-02  5.6338397796455393e-02  5.4483909852671833e-02  5.7295649880281130e-02  5.6769633036614642e-02  6.1198362071520900e-02  6.0261008463026650e-02  6.6750380942792398e-02  7.3906880862124227e-02  9.7464053825734670e-02  1.2631288748928485e-01  1.6494233409418255e-01  2.0611589294886840e-01  2.4429272811191163e-01  2.8517075939985509e-01  3.0715350629838856e-01  3.3749918539794443e-01  3.5037417694161843e-01  3.6557345422557741e-01  3.7456674499069814e-01  3.7913140617202934e-01  3.7881453091397316e-01  3.7373785154959716e-01  3.5764022608022439e-01  3.4860680273462291e-01  3.2341311950869561e-01  3.0399305295096674e-01  2.6823490692669877e-01  2.3439312811755963e-01  1.9063864410972303e-01  1.4809261408684130e-01  1.0545765594040103e-01  6.2933535878252789e-02  4.0634180048914101e-02  1.9039052792571173e-02  2.1996256193632980e-02  1.9749763611157350e-02  2.7581573193639925e-02  2.5165389311356801e-02  3.0771501802679669e-02  3.2258227424128136e-02  4.5489189669048399e-02  6.5232632601774504e-02  9.8792917580667203e-02  1.4205488198036956e-01  1.8535143327741840e-01  2.3067169333011020e-01  2.6560452001890428e-01  3.0156549980292885e-01  3.2119246059552808e-01  3.4531731783205605e-01  3.5345954089771142e-01  3.6894922442719597e-01  3.7174969295895438e-01  3.7771834214744193e-01  3.6913238188687603e-01  3.5816829054347432e-01  3.3926746531610041e-01  3.2374589237119972e-01  2.9302057629305905e-01  2.6457836914525684e-01  2.2347648260887160e-01  1.8214298979811286e-01  1.3890582519257910e-01  9.0339521915222487e-02  4.8429847631464525e-02  2.9524688888703108e-02  2.3475917259672256e-03  1.4373724103336121e-03  2.8321178670923730e-03  3.4741480339193919e-03  6.6333154389587997e-03  6.1330359691945174e-03  9.8383054654953526e-03  2.1252247571109398e-02  4.3906706856079072e-02  8.2507373780672522e-02  1.2452257735305083e-01  1.7319778997204666e-01  2.1673730446895437e-01  2.5905243859792210e-01  2.8759185891349748e-01  3.1868565387899267e-01  3.3269761542004683e-01  3.5055780061532593e-01  3.6106946640745508e-01  3.6714656330658779e-01  3.7691371232841997e-01  3.7023136981266530e-01  3.5310523380360975e-01  3.4183935431124723e-01  3.1660764173311712e-01  2.9383962729056301e-01  2.5564381172970185e-01  2.2102068164128799e-01  1.7530838624995543e-01  1.2988641564853548e-01  8.3884758029903292e-02  5.6354568275930342e-02  9.7646147670925929e-02  3.9773538044092843e-03  9.2608954251166228e-04  1.0315575349980663e-05  -9.2648181806282131e-09  1.7105812411532361e-03  1.0492140407082021e-03  3.2929163889967574e-03  9.3925313453445628e-03  2.6843312738201619e-02  7.3384525728101002e-02  1.2092670936253461e-01  1.6377326552489976e-01  2.1430801845455030e-01  2.4871771963632303e-01  2.8662427321058814e-01  3.0894678819071847e-01  3.3287700807805393e-01  3.4279661055245497e-01  3.5945972738971937e-01  3.6344809709092696e-01  3.7779608581640611e-01  3.6846155551610266e-01  3.5648558553279885e-01  3.3655339850742599e-01  3.2018598456819281e-01  2.8721084518939966e-01  2.5777275783819076e-01  2.1420126244140175e-01  1.6947915014110848e-01  1.2413485296312517e-01  7.4229401774168036e-02  5.4253229095336851e-03  7.9397990662545754e-04  2.4422864339730541e-04  1.0627917113412109e-04  5.0075355232604316e-05  8.1582119568879746e-05  9.4378923290083653e-05  1.1590380021291197e-04  1.7559898099902188e-04  3.4008303017450057e-04  6.5071299110592796e-03  7.3035893402371849e-02  1.2239823320213478e-01  1.6479273003584646e-01  2.0825700669465375e-01  2.5214963421192305e-01  2.7929740099636780e-01  3.1164881572464914e-01  3.2586113006151601e-01  3.4449537762133259e-01  3.5581559269301349e-01  3.6235111595122099e-01  3.7853419130414306e-01  3.7172071282760055e-01  3.5433268351641245e-01  3.4267607060523109e-01  3.1695783744706330e-01  2.9342730566916658e-01  2.5392897371035683e-01  2.1694137697212126e-01  1.6838780130529091e-01  1.2052076618365175e-01  7.0655043212625640e-02  2.2705521739784795e-02  5.1350233756595918e-03  2.9403330083564772e-03  6.4338380589349081e-04  1.3892780241317682e-04  1.2161902225670856e-04  9.9978787941984253e-05  1.0741869218672063e-04  1.3275743608929050e-04  2.2896635744073959e-04  2.6445752779135554e-02  7.8404068021527093e-02  1.2776927297934490e-01  1.7025118574162806e-01  2.1556627679928533e-01  2.4893519190765723e-01  2.8640371754038241e-01  3.0805033309559005e-01  3.3167334242836777e-01  3.4156144787593568e-01  3.5821768122762593e-01  3.6215673795391107e-01  3.8091083901145656e-01  3.7207496616107810e-01  3.6057346348749564e-01  3.4100274289443344e-01  3.2448224901389905e-01  2.9263709086194722e-01  2.6222056385142684e-01  2.1780302262710899e-01  1.7243571031718283e-01  1.2628238287766760e-01  7.7880289494226526e-02  3.8243474143131687e-02  1.6878855645296321e-02  9.2070794552269238e-03  5.8217920418522136e-03  4.8372154299380641e-03  3.9508650090802578e-03  5.2117149552001352e-03  5.8325978885823979e-03  9.3354693566418904e-03  1.9260573319373517e-02  4.3380680007297841e-02  9.1364210794274897e-02  1.3706986170228916e-01  1.7723406842763340e-01  2.1964473887920744e-01  2.6004538239273950e-01  2.8635117881949151e-01  3.1671015258198848e-01  3.3036331445037254e-01  3.4811231892332239e-01  3.5868468007157539e-01  3.6460496469310016e-01  3.8339641233102245e-01  3.7797854815267112e-01  3.6123318260853254e-01  3.5142032826985736e-01  3.2510286583383630e-01  3.0429945800247349e-01  2.6673501809865874e-01  2.3000793695873278e-01  1.8250604325235442e-01  1.3804692732063001e-01  9.6543111364635809e-02  5.9476522940858700e-02  4.0773905142513660e-02  2.9149969309159848e-02  2.5203497930929276e-02  2.2870166179301508e-02  2.2468523660291867e-02  2.3798523208969108e-02  2.6200454309984515e-02  3.0317145171217308e-02  4.5848650253646310e-02  6.7170788525508909e-02  1.0876996063034322e-01  1.4662985936548945e-01  1.9062085491116310e-01  2.3385925626240728e-01  2.6455738358728753e-01  3.0006658991665275e-01  3.1840018220296196e-01  3.4202852958433566e-01  3.4964085794099264e-01  3.6547102181369429e-01  3.6805480567061882e-01  3.8810424153320394e-01  3.8113453365476468e-01  3.7082781884920452e-01  3.5367827739850261e-01  3.3893816398388632e-01  3.0763747317689571e-01  2.8517125990293352e-01  2.4215672926702272e-01  2.0322766992248059e-01  1.6030607230758848e-01  1.2232277915233722e-01  9.3790990590161147e-02  7.0405736072117558e-02  6.1602107746546987e-02  5.8595524434892396e-02  5.5601479645443701e-02  5.7501521506855793e-02  5.6757874123883258e-02  6.1455951800903436e-02  6.5122161265870865e-02  7.5589996305375384e-02  1.0209552759218465e-01  1.3153107183799800e-01  1.6963065158284205e-01  2.1129040613589073e-01  2.4419705206628339e-01  2.8533557140058696e-01  3.0469631757538501e-01  3.3403978043151344e-01  3.4571381275129165e-01  3.6100869552314890e-01  3.7009799770558566e-01  3.7427603151800365e-01  3.9366621941103552e-01  3.8878960171255050e-01  3.7671822697097684e-01  3.6553653476275660e-01  3.4525747465910944e-01  3.2388462898020615e-01  2.9194791938853853e-01  2.6674266398124502e-01  2.2227499856713215e-01  1.9086978736602817e-01  1.5298799412434233e-01  1.3137515873390812e-01  1.1235835668958148e-01  1.0127693390052520e-01  9.6889541215196870e-02  9.7503236079098526e-02  9.5648076711906532e-02  9.8912503518506334e-02  9.9045457531336839e-02  1.0608566131127660e-01  1.1759888931650414e-01  1.3942920146630389e-01  1.6086433155294938e-01  1.9937565180310965e-01  2.2739940472497458e-01  2.7022516466732222e-01  2.9272684926960041e-01  3.2256312710362650e-01  3.4174555443100357e-01  3.5937047214265755e-01  3.6840808435222427e-01  3.7932932978267331e-01  3.8178105443319371e-01  4.0075165164485088e-01  3.9682171080748180e-01  3.8603592899053379e-01  3.7651894763036192e-01  3.5869073356595732e-01  3.3773152431309617e-01  3.1276188341684535e-01  2.8064968506211779e-01  2.5397758737242054e-01  2.1733092241501112e-01  1.9147820542386526e-01  1.6548233806760460e-01  1.5351651422626875e-01  1.4122900671478419e-01  1.3889004956749001e-01  1.3304925767992803e-01  1.3753410256366241e-01  1.3402169550931120e-01  1.4077969585456757e-01  1.4403966197927340e-01  1.5828670619032248e-01  1.7087844415077616e-01  1.9832315676321857e-01  2.2268175838846407e-01  2.5925900579849714e-01  2.8346296217614481e-01  3.1436165120729420e-01  3.3714623983409919e-01  3.5639300360832421e-01  3.7176507147176735e-01  3.7964955841446024e-01  3.8943155185074896e-01  3.9069194092895537e-01  4.0913978143845997e-01  4.0555748422302357e-01  3.9766627292973233e-01  3.8628012596943201e-01  3.7380181916118715e-01  3.4969926979918531e-01  3.3137048948227105e-01  3.0345578268112844e-01  2.7129953126055301e-01  2.5300558028490311e-01  2.2073085019635502e-01  2.0590825093081305e-01  1.8644942559839237e-01  1.7879293858464129e-01  1.7115938930903837e-01  1.7306775287136988e-01  1.6467554957104483e-01  1.7372852064351976e-01  1.7191431500896109e-01  1.8100777709629293e-01  1.8891936657540587e-01  2.1032101514507445e-01  2.2461155948911721e-01  2.5805545804649971e-01  2.7493043439136389e-01  3.0633444290094264e-01  3.3345155183337000e-01  3.4987841546684484e-01  3.7321777247910010e-01  3.8344661426046395e-01  3.9313598195511540e-01  3.9938059362775513e-01  4.0107549437000795e-01  4.1820800367144090e-01  4.1701239270249246e-01  4.0782033236768639e-01  4.0231163110361057e-01  3.8648058343106911e-01  3.7133229351979474e-01  3.4439836199196344e-01  3.2889954008243893e-01  2.9523076500058709e-01  2.7136372666088332e-01  2.5507560857001887e-01  2.3147601082662878e-01  2.2383724648952724e-01  2.0752738730092896e-01  2.0543586336809846e-01  1.9764485002082385e-01  2.0164834681794086e-01  1.9741071082570882e-01  2.0576013787233879e-01  2.0774571877989700e-01  2.2559883186104185e-01  2.3335808224554996e-01  2.5857678127419315e-01  2.7478169439700667e-01  2.9847657211414286e-01  3.3242716411252488e-01  3.4685754245155531e-01  3.7285225256113158e-01  3.8736833795073367e-01  4.0071903761463612e-01  4.0408880258220181e-01  4.1255163432444808e-01  4.1185527201585392e-01  4.2919986312038699e-01  4.2782321794936168e-01  4.2185935323286489e-01  4.12160414