<?xml version="1.0"?>
<VTKFile type="UnstructuredGrid"  version="0.1"  >
<UnstructuredGrid>
<Piece  NumberOfPoints="10201" NumberOfCells="20000">
<Points>
<DataArray  type="Float64"  NumberOfComponents="3"  format="ascii">0 0 0  0.015 0 0  0.03 0 0  0.045 0 0  0.06 0 0  0.075 0 0  0.09 0 0  0.105 0 0  0.12 0 0  0.135 0 0  0.15 0 0  0.165 0 0  0.18 0 0  0.195 0 0  0.21 0 0  0.225 0 0  0.24 0 0  0.255 0 0  0.27 0 0  0.285 0 0  0.3 0 0  0.315 0 0  0.33 0 0  0.345 0 0  0.36 0 0  0.375 0 0  0.39 0 0  0.405 0 0  0.42 0 0  0.435 0 0  0.45 0 0  0.465 0 0  0.48 0 0  0.495 0 0  0.51 0 0  0.525 0 0  0.54 0 0  0.555 0 0  0.57 0 0  0.585 0 0  0.6 0 0  0.615 0 0  0.63 0 0  0.645 0 0  0.66 0 0  0.675 0 0  0.6899999999999999 0 0  0.705 0 0  0.72 0 0  0.735 0 0  0.75 0 0  0.765 0 0  0.78 0 0  0.795 0 0  0.8100000000000001 0 0  0.825 0 0  0.84 0 0  0.855 0 0  0.87 0 0  0.885 0 0  0.9 0 0  0.915 0 0  0.93 0 0  0.945 0 0  0.96 0 0  0.975 0 0  0.99 0 0  1.005 0 0  1.02 0 0  1.035 0 0  1.05 0 0  1.065 0 0  1.08 0 0  1.095 0 0  1.11 0 0  1.125 0 0  1.14 0 0  1.155 0 0  1.17 0 0  1.185 0 0  1.2 0 0  1.215 0 0  1.23 0 0  1.245 0 0  1.26 0 0  1.275 0 0  1.29 0 0  1.305 0 0  1.32 0 0  1.335 0 0  1.35 0 0  1.365 0 0  1.38 0 0  1.395 0 0  1.41 0 0  1.425 0 0  1.44 0 0  1.455 0 0  1.47 0 0  1.485 0 0  1.5 0 0  0 0.01 0  0.015 0.01 0  0.03 0.01 0  0.045 0.01 0  0.06 0.01 0  0.075 0.01 0  0.09 0.01 0  0.105 0.01 0  0.12 0.01 0  0.135 0.01 0  0.15 0.01 0  0.165 0.01 0  0.18 0.01 0  0.195 0.01 0  0.21 0.01 0  0.225 0.01 0  0.24 0.01 0  0.255 0.01 0  0.27 0.01 0  0.285 0.01 0  0.3 0.01 0  0.315 0.01 0  0.33 0.01 0  0.345 0.01 0  0.36 0.01 0  0.375 0.01 0  0.39 0.01 0  0.405 0.01 0  0.42 0.01 0  0.435 0.01 0  0.45 0.01 0  0.465 0.01 0  0.48 0.01 0  0.495 0.01 0  0.51 0.01 0  0.525 0.01 0  0.54 0.01 0  0.555 0.01 0  0.57 0.01 0  0.585 0.01 0  0.6 0.01 0  0.615 0.01 0  0.63 0.01 0  0.645 0.01 0  0.66 0.01 0  0.675 0.01 0  0.6899999999999999 0.01 0  0.705 0.01 0  0.72 0.01 0  0.735 0.01 0  0.75 0.01 0  0.765 0.01 0  0.78 0.01 0  0.795 0.01 0  0.8100000000000001 0.01 0  0.825 0.01 0  0.84 0.01 0  0.855 0.01 0  0.87 0.01 0  0.885 0.01 0  0.9 0.01 0  0.915 0.01 0  0.93 0.01 0  0.945 0.01 0  0.96 0.01 0  0.975 0.01 0  0.99 0.01 0  1.005 0.01 0  1.02 0.01 0  1.035 0.01 0  1.05 0.01 0  1.065 0.01 0  1.08 0.01 0  1.095 0.01 0  1.11 0.01 0  1.125 0.01 0  1.14 0.01 0  1.155 0.01 0  1.17 0.01 0  1.185 0.01 0  1.2 0.01 0  1.215 0.01 0  1.23 0.01 0  1.245 0.01 0  1.26 0.01 0  1.275 0.01 0  1.29 0.01 0  1.305 0.01 0  1.32 0.01 0  1.335 0.01 0  1.35 0.01 0  1.365 0.01 0  1.38 0.01 0  1.395 0.01 0  1.41 0.01 0  1.425 0.01 0  1.44 0.01 0  1.455 0.01 0  1.47 0.01 0  1.485 0.01 0  1.5 0.01 0  0 0.02 0  0.015 0.02 0  0.03 0.02 0  0.045 0.02 0  0.06 0.02 0  0.075 0.02 0  0.09 0.02 0  0.105 0.02 0  0.12 0.02 0  0.135 0.02 0  0.15 0.02 0  0.165 0.02 0  0.18 0.02 0  0.195 0.02 0  0.21 0.02 0  0.225 0.02 0  0.24 0.02 0  0.255 0.02 0  0.27 0.02 0  0.285 0.02 0  0.3 0.02 0  0.315 0.02 0  0.33 0.02 0  0.345 0.02 0  0.36 0.02 0  0.375 0.02 0  0.39 0.02 0  0.405 0.02 0  0.42 0.02 0  0.435 0.02 0  0.45 0.02 0  0.465 0.02 0  0.48 0.02 0  0.495 0.02 0  0.51 0.02 0  0.525 0.02 0  0.54 0.02 0  0.555 0.02 0  0.57 0.02 0  0.585 0.02 0  0.6 0.02 0  0.615 0.02 0  0.63 0.02 0  0.645 0.02 0  0.66 0.02 0  0.675 0.02 0  0.6899999999999999 0.02 0  0.705 0.02 0  0.72 0.02 0  0.735 0.02 0  0.75 0.02 0  0.765 0.02 0  0.78 0.02 0  0.795 0.02 0  0.8100000000000001 0.02 0  0.825 0.02 0  0.84 0.02 0  0.855 0.02 0  0.87 0.02 0  0.885 0.02 0  0.9 0.02 0  0.915 0.02 0  0.93 0.02 0  0.945 0.02 0  0.96 0.02 0  0.975 0.02 0  0.99 0.02 0  1.005 0.02 0  1.02 0.02 0  1.035 0.02 0  1.05 0.02 0  1.065 0.02 0  1.08 0.02 0  1.095 0.02 0  1.11 0.02 0  1.125 0.02 0  1.14 0.02 0  1.155 0.02 0  1.17 0.02 0  1.185 0.02 0  1.2 0.02 0  1.215 0.02 0  1.23 0.02 0  1.245 0.02 0  1.26 0.02 0  1.275 0.02 0  1.29 0.02 0  1.305 0.02 0  1.32 0.02 0  1.335 0.02 0  1.35 0.02 0  1.365 0.02 0  1.38 0.02 0  1.395 0.02 0  1.41 0.02 0  1.425 0.02 0  1.44 0.02 0  1.455 0.02 0  1.47 0.02 0  1.485 0.02 0  1.5 0.02 0  0 0.03 0  0.015 0.03 0  0.03 0.03 0  0.045 0.03 0  0.06 0.03 0  0.075 0.03 0  0.09 0.03 0  0.105 0.03 0  0.12 0.03 0  0.135 0.03 0  0.15 0.03 0  0.165 0.03 0  0.18 0.03 0  0.195 0.03 0  0.21 0.03 0  0.225 0.03 0  0.24 0.03 0  0.255 0.03 0  0.27 0.03 0  0.285 0.03 0  0.3 0.03 0  0.315 0.03 0  0.33 0.03 0  0.345 0.03 0  0.36 0.03 0  0.375 0.03 0  0.39 0.03 0  0.405 0.03 0  0.42 0.03 0  0.435 0.03 0  0.45 0.03 0  0.465 0.03 0  0.48 0.03 0  0.495 0.03 0  0.51 0.03 0  0.525 0.03 0  0.54 0.03 0  0.555 0.03 0  0.57 0.03 0  0.585 0.03 0  0.6 0.03 0  0.615 0.03 0  0.63 0.03 0  0.645 0.03 0  0.66 0.03 0  0.675 0.03 0  0.6899999999999999 0.03 0  0.705 0.03 0  0.72 0.03 0  0.735 0.03 0  0.75 0.03 0  0.765 0.03 0  0.78 0.03 0  0.795 0.03 0  0.8100000000000001 0.03 0  0.825 0.03 0  0.84 0.03 0  0.855 0.03 0  0.87 0.03 0  0.885 0.03 0  0.9 0.03 0  0.915 0.03 0  0.93 0.03 0  0.945 0.03 0  0.96 0.03 0  0.975 0.03 0  0.99 0.03 0  1.005 0.03 0  1.02 0.03 0  1.035 0.03 0  1.05 0.03 0  1.065 0.03 0  1.08 0.03 0  1.095 0.03 0  1.11 0.03 0  1.125 0.03 0  1.14 0.03 0  1.155 0.03 0  1.17 0.03 0  1.185 0.03 0  1.2 0.03 0  1.215 0.03 0  1.23 0.03 0  1.245 0.03 0  1.26 0.03 0  1.275 0.03 0  1.29 0.03 0  1.305 0.03 0  1.32 0.03 0  1.335 0.03 0  1.35 0.03 0  1.365 0.03 0  1.38 0.03 0  1.395 0.03 0  1.41 0.03 0  1.425 0.03 0  1.44 0.03 0  1.455 0.03 0  1.47 0.03 0  1.485 0.03 0  1.5 0.03 0  0 0.04 0  0.015 0.04 0  0.03 0.04 0  0.045 0.04 0  0.06 0.04 0  0.075 0.04 0  0.09 0.04 0  0.105 0.04 0  0.12 0.04 0  0.135 0.04 0  0.15 0.04 0  0.165 0.04 0  0.18 0.04 0  0.195 0.04 0  0.21 0.04 0  0.225 0.04 0  0.24 0.04 0  0.255 0.04 0  0.27 0.04 0  0.285 0.04 0  0.3 0.04 0  0.315 0.04 0  0.33 0.04 0  0.345 0.04 0  0.36 0.04 0  0.375 0.04 0  0.39 0.04 0  0.405 0.04 0  0.42 0.04 0  0.435 0.04 0  0.45 0.04 0  0.465 0.04 0  0.48 0.04 0  0.495 0.04 0  0.51 0.04 0  0.525 0.04 0  0.54 0.04 0  0.555 0.04 0  0.57 0.04 0  0.585 0.04 0  0.6 0.04 0  0.615 0.04 0  0.63 0.04 0  0.645 0.04 0  0.66 0.04 0  0.675 0.04 0  0.6899999999999999 0.04 0  0.705 0.04 0  0.72 0.04 0  0.735 0.04 0  0.75 0.04 0  0.765 0.04 0  0.78 0.04 0  0.795 0.04 0  0.8100000000000001 0.04 0  0.825 0.04 0  0.84 0.04 0  0.855 0.04 0  0.87 0.04 0  0.885 0.04 0  0.9 0.04 0  0.915 0.04 0  0.93 0.04 0  0.945 0.04 0  0.96 0.04 0  0.975 0.04 0  0.99 0.04 0  1.005 0.04 0  1.02 0.04 0  1.035 0.04 0  1.05 0.04 0  1.065 0.04 0  1.08 0.04 0  1.095 0.04 0  1.11 0.04 0  1.125 0.04 0  1.14 0.04 0  1.155 0.04 0  1.17 0.04 0  1.185 0.04 0  1.2 0.04 0  1.215 0.04 0  1.23 0.04 0  1.245 0.04 0  1.26 0.04 0  1.275 0.04 0  1.29 0.04 0  1.305 0.04 0  1.32 0.04 0  1.335 0.04 0  1.35 0.04 0  1.365 0.04 0  1.38 0.04 0  1.395 0.04 0  1.41 0.04 0  1.425 0.04 0  1.44 0.04 0  1.455 0.04 0  1.47 0.04 0  1.485 0.04 0  1.5 0.04 0  0 0.05 0  0.015 0.05 0  0.03 0.05 0  0.045 0.05 0  0.06 0.05 0  0.075 0.05 0  0.09 0.05 0  0.105 0.05 0  0.12 0.05 0  0.135 0.05 0  0.15 0.05 0  0.165 0.05 0  0.18 0.05 0  0.195 0.05 0  0.21 0.05 0  0.225 0.05 0  0.24 0.05 0  0.255 0.05 0  0.27 0.05 0  0.285 0.05 0  0.3 0.05 0  0.315 0.05 0  0.33 0.05 0  0.345 0.05 0  0.36 0.05 0  0.375 0.05 0  0.39 0.05 0  0.405 0.05 0  0.42 0.05 0  0.435 0.05 0  0.45 0.05 0  0.465 0.05 0  0.48 0.05 0  0.495 0.05 0  0.51 0.05 0  0.525 0.05 0  0.54 0.05 0  0.555 0.05 0  0.57 0.05 0  0.585 0.05 0  0.6 0.05 0  0.615 0.05 0  0.63 0.05 0  0.645 0.05 0  0.66 0.05 0  0.675 0.05 0  0.6899999999999999 0.05 0  0.705 0.05 0  0.72 0.05 0  0.735 0.05 0  0.75 0.05 0  0.765 0.05 0  0.78 0.05 0  0.795 0.05 0  0.8100000000000001 0.05 0  0.825 0.05 0  0.84 0.05 0  0.855 0.05 0  0.87 0.05 0  0.885 0.05 0  0.9 0.05 0  0.915 0.05 0  0.93 0.05 0  0.945 0.05 0  0.96 0.05 0  0.975 0.05 0  0.99 0.05 0  1.005 0.05 0  1.02 0.05 0  1.035 0.05 0  1.05 0.05 0  1.065 0.05 0  1.08 0.05 0  1.095 0.05 0  1.11 0.05 0  1.125 0.05 0  1.14 0.05 0  1.155 0.05 0  1.17 0.05 0  1.185 0.05 0  1.2 0.05 0  1.215 0.05 0  1.23 0.05 0  1.245 0.05 0  1.26 0.05 0  1.275 0.05 0  1.29 0.05 0  1.305 0.05 0  1.32 0.05 0  1.335 0.05 0  1.35 0.05 0  1.365 0.05 0  1.38 0.05 0  1.395 0.05 0  1.41 0.05 0  1.425 0.05 0  1.44 0.05 0  1.455 0.05 0  1.47 0.05 0  1.485 0.05 0  1.5 0.05 0  0 0.06 0  0.015 0.06 0  0.03 0.06 0  0.045 0.06 0  0.06 0.06 0  0.075 0.06 0  0.09 0.06 0  0.105 0.06 0  0.12 0.06 0  0.135 0.06 0  0.15 0.06 0  0.165 0.06 0  0.18 0.06 0  0.195 0.06 0  0.21 0.06 0  0.225 0.06 0  0.24 0.06 0  0.255 0.06 0  0.27 0.06 0  0.285 0.06 0  0.3 0.06 0  0.315 0.06 0  0.33 0.06 0  0.345 0.06 0  0.36 0.06 0  0.375 0.06 0  0.39 0.06 0  0.405 0.06 0  0.42 0.06 0  0.435 0.06 0  0.45 0.06 0  0.465 0.06 0  0.48 0.06 0  0.495 0.06 0  0.51 0.06 0  0.525 0.06 0  0.54 0.06 0  0.555 0.06 0  0.57 0.06 0  0.585 0.06 0  0.6 0.06 0  0.615 0.06 0  0.63 0.06 0  0.645 0.06 0  0.66 0.06 0  0.675 0.06 0  0.6899999999999999 0.06 0  0.705 0.06 0  0.72 0.06 0  0.735 0.06 0  0.75 0.06 0  0.765 0.06 0  0.78 0.06 0  0.795 0.06 0  0.8100000000000001 0.06 0  0.825 0.06 0  0.84 0.06 0  0.855 0.06 0  0.87 0.06 0  0.885 0.06 0  0.9 0.06 0  0.915 0.06 0  0.93 0.06 0  0.945 0.06 0  0.96 0.06 0  0.975 0.06 0  0.99 0.06 0  1.005 0.06 0  1.02 0.06 0  1.035 0.06 0  1.05 0.06 0  1.065 0.06 0  1.08 0.06 0  1.095 0.06 0  1.11 0.06 0  1.125 0.06 0  1.14 0.06 0  1.155 0.06 0  1.17 0.06 0  1.185 0.06 0  1.2 0.06 0  1.215 0.06 0  1.23 0.06 0  1.245 0.06 0  1.26 0.06 0  1.275 0.06 0  1.29 0.06 0  1.305 0.06 0  1.32 0.06 0  1.335 0.06 0  1.35 0.06 0  1.365 0.06 0  1.38 0.06 0  1.395 0.06 0  1.41 0.06 0  1.425 0.06 0  1.44 0.06 0  1.455 0.06 0  1.47 0.06 0  1.485 0.06 0  1.5 0.06 0  0 0.07000000000000001 0  0.015 0.07000000000000001 0  0.03 0.07000000000000001 0  0.045 0.07000000000000001 0  0.06 0.07000000000000001 0  0.075 0.07000000000000001 0  0.09 0.07000000000000001 0  0.105 0.07000000000000001 0  0.12 0.07000000000000001 0  0.135 0.07000000000000001 0  0.15 0.07000000000000001 0  0.165 0.07000000000000001 0  0.18 0.07000000000000001 0  0.195 0.07000000000000001 0  0.21
[...]
<PointData  Scalars="ControlVisualisation"> 
<DataArray  type="Float64"  Name="ControlVisualisation"  format="ascii">8.1076325011023034e-02  1.6889956463341405e-02  1.6883646916316400e-02  1.6876505605199668e-02  1.6870573911628065e-02  1.6868562552296226e-02  1.6873851412548338e-02  1.6890205513791376e-02  1.6921533196953456e-02  1.6971507783853049e-02  1.7042833369062899e-02  1.7136257451831144e-02  1.7249881140953827e-02  1.7379262730076506e-02  1.7518297202727504e-02  1.7660419335692054e-02  1.7799642979940106e-02  1.7931187653376021e-02  1.8051691568311545e-02  1.8159136139573206e-02  1.8252622313993827e-02  1.8332102451848770e-02  1.8398127222852251e-02  1.8451633617549715e-02  1.8493780270666255e-02  1.8525826479370899e-02  1.8549047569480670e-02  1.8564678679813332e-02  1.8573879835309212e-02  1.8577716434715466e-02  1.8577150550903004e-02  1.8573039557822996e-02  1.8566139509406596e-02  1.8557111410092267e-02  1.8546529061591446e-02  1.8534887579007023e-02  1.8522611969459549e-02  1.8510065384236787e-02  1.8497556810585083e-02  1.8485348077330779e-02  1.8473660122275762e-02  1.8462678517728648e-02  1.8452558280205783e-02  1.8443428008132104e-02  1.8435393398532451e-02  1.8428540197082330e-02  1.8422936632206843e-02  1.8418635380429538e-02  1.8415675103311505e-02  1.8414081589168060e-02  1.8413868525164023e-02  1.8415037917172417e-02  1.8417580167034292e-02  1.8421473808309496e-02  1.8426684893757678e-02  1.8433166019215422e-02  1.8440854960627875e-02  1.8449672892486141e-02  1.8459522148400312e-02  1.8470283477090121e-02  1.8481812741349454e-02  1.8493937003643282e-02  1.8506449941764064e-02  1.8519106542891142e-02  1.8531617037411338e-02  1.8543640057700192e-02  1.8554775047849331e-02  1.8564554012431331e-02  1.8572432785660009e-02  1.8577782136737025e-02  1.8579879216913869e-02  1.8577900117501961e-02  1.8570914668925978e-02  1.8557885098434021e-02  1.8537670815116106e-02  1.8509042443305160e-02  1.8470709317794473e-02  1.8421365992032243e-02  1.8359764826228198e-02  1.8284823150902685e-02  1.8195774165088635e-02  1.8092369147436768e-02  1.7975131895503191e-02  1.7845649949284226e-02  1.7706855440477745e-02  1.7563198971263072e-02  1.7420564767272634e-02  1.7285757250861011e-02  1.7165483959325073e-02  1.7065020706839476e-02  1.6987073452252338e-02  1.6931434059112155e-02  1.6895602297040166e-02  1.6875883755555751e-02  1.6868269574794342e-02  1.6868872494178996e-02  1.6874163277052254e-02  1.6881285279744848e-02  1.6887925982506699e-02  1.6892814870598655e-02  2.5504612176273533e-01  1.6891045540570332e-02  5.5989216793402878e-03  5.5859003095951659e-03  5.5726208783523365e-03  5.5678090187889521e-03  5.5842284704510940e-03  5.6371157773455896e-03  5.7417131509753753e-03  5.9105730262644920e-03  6.1512965875928152e-03  6.4646722314936744e-03  6.8434941436373150e-03  7.2729362402453902e-03  7.7328415174727060e-03  8.2012290105055799e-03  8.6577672358283033e-03  9.0862088345306305e-03  9.4754325598145946e-03  9.8193048737180884e-03  1.0115828871429703e-02  1.0366032495845137e-02  1.0572903179068723e-02  1.0740519756377213e-02  1.0873419738560030e-02  1.0976178625480400e-02  1.1053154771181770e-02  1.1108351942226860e-02  1.1145359777832035e-02  1.1167342650392669e-02  1.1177056613988594e-02  1.1176881183316063e-02  1.1168857648238755e-02  1.1154728935067656e-02  1.1135978145216531e-02  1.1113864232068886e-02  1.1089454095735070e-02  1.1063650871781102e-02  1.1037218484413355e-02  1.1010802701748444e-02  1.0984949016707836e-02  1.0960117711095627e-02  1.0936696460586998e-02  1.0915010819823335e-02  1.0895332895286419e-02  1.0877888475598830e-02  1.0862862853479772e-02  1.0850405531675870e-02  1.0840633973075997e-02  1.0833636521674817e-02  1.0829474592585670e-02  1.0828184203942638e-02  1.0829776899421998e-02  1.0834240090153071e-02  1.0841536822954063e-02  1.0851604963098503e-02  1.0864355758070739e-02  1.0879671726713606e-02  1.0897403792834773e-02  1.0917367556399969e-02  1.0939338561065300e-02  1.0963046386367562e-02  1.0988167351942109e-02  1.1014315583905252e-02  1.1041032153314135e-02  1.1067771960123939e-02  1.1093888006627849e-02  1.1118612689518621e-02  1.1141035742482815e-02  1.1160078501644265e-02  1.1174464252361125e-02  1.1182684579799807e-02  1.1182961926825715e-02  1.1173209033684005e-02  1.1150986713585890e-02  1.1113462699333911e-02  1.1057376388387444e-02  1.0979017658066227e-02  1.0874233110929160e-02  1.0738480752240823e-02  1.0566964521538841e-02  1.0354892561383165e-02  1.0097914414448180e-02  9.7927947562795829e-03  9.4383603783110698e-03  9.0366920445392324e-03  8.5944036802968818e-03  8.1236605742794794e-03  7.6423963282745517e-03  7.1731405546897279e-03  6.7401560299997993e-03  6.3652761732593995e-03  6.0636636044069476e-03  5.8410645019772176e-03  5.6935357173233444e-03  5.6094278287678071e-03  5.5726658117006044e-03  5.5663470423359127e-03  5.5758051281351740e-03  5.5896947458108212e-03  5.6022718127312831e-03  1.6892951142038398e-02  1.6886480078516994e-02  5.5911692753417485e-03  5.5718866289247351e-03  5.5625774714252486e-03  5.5839078733721419e-03  5.6723280378911762e-03  5.8744289005513628e-03  6.2435984433688845e-03  6.8302402061130073e-03  7.6649061370273460e-03  8.7407744206353683e-03  1.0005469583382016e-02  1.1367242041380628e-02  1.2713447775419905e-02  1.3934210374624376e-02  1.4942749684268361e-02  1.5686733803232052e-02  1.6149760223758171e-02  1.6345596144487516e-02  1.6308951998566815e-02  1.6085947924460040e-02  1.5726156273148346e-02  1.5276929884203209e-02  1.4779955290463598e-02  1.4269598907987190e-02  1.3772520718181653e-02  1.3308084795254509e-02  1.2889206100921077e-02  1.2523385196820499e-02  1.2213774107954295e-02  1.1960182385361100e-02  1.1759975811664762e-02  1.1608847124897882e-02  1.1501454195516635e-02  1.1431930506551488e-02  1.1394278276509556e-02  1.1382657634426013e-02  1.1391586813725086e-02  1.1416068710174702e-02  1.1451658689827390e-02  1.1494487424876340e-02  1.1541250982203127e-02  1.1589178622587359e-02  1.1635986907997855e-02  1.1679826926192696e-02  1.1719229900035846e-02  1.1753055033687593e-02  1.1780442320677053e-02  1.1800772195798472e-02  1.1813633224244856e-02  1.1818798561350013e-02  1.1816211557051846e-02  1.1805980683358759e-02  1.1788383761230672e-02  1.1763881317873041e-02  1.1733138734522780e-02  1.1697056606454582e-02  1.1656808389411227e-02  1.1613883954022693e-02  1.1570137018852390e-02  1.1527833616248945e-02  1.1489697714703373e-02  1.1458948924139262e-02  1.1439325860203353e-02  1.1435087313358849e-02  1.1450981987627007e-02  1.1492176313086713e-02  1.1564128911788964e-02  1.1672399741008210e-02  1.1822381851643679e-02  1.2018944098079007e-02  1.2265974005357588e-02  1.2565811425015564e-02  1.2918566116337266e-02  1.3321317228919639e-02  1.3767202526286385e-02  1.4244424547737441e-02  1.4735236512802889e-02  1.5215030589172687e-02  1.5651741993457681e-02  1.6005904151215330e-02  1.6231825676280551e-02  1.6280461259670836e-02  1.6104522727837977e-02  1.5666084814940574e-02  1.4946234087086483e-02  1.3955135977524201e-02  1.2739480073416621e-02  1.1383294333533247e-02  9.9986790981474779e-03  8.7059507301022517e-03  7.6075143744940722e-03  6.7642473763995792e-03  6.1845280598696196e-03  5.8319931746666134e-03  5.6476726391508176e-03  5.5722925570507774e-03  5.5581166381055720e-03  5.5702657419102056e-03  5.5930793632818117e-03  1.6889630544314055e-02  1.6879420404615597e-02  5.5815757702795364e-03  5.5679404679034672e-03  5.5838636809910818e-03  5.6596600391888253e-03  5.8646627267332340e-03  6.2952815173639032e-03  7.0609705930803120e-03  8.2426619116019815e-03  9.8467673729896073e-03  1.1791792819064555e-02  1.3932119215871730e-02  1.6097415671765244e-02  1.8129525139494108e-02  1.9908086998492766e-02  2.1361833057043013e-02  2.2466845688686267e-02  2.3236323246253510e-02  2.3707274334439431e-02  2.3928282916444051e-02  2.3950408202565832e-02  2.3821552747447728e-02  2.3583671015548445e-02  2.3271896338386482e-02  2.2914756776104619e-02  2.2534886436585931e-02  2.2149875117655857e-02  2.1773077850908776e-02  2.1414318701286815e-02  2.1080483074262017e-02  2.0776017463721402e-02  2.0503360222187107e-02  2.0263322296385687e-02  2.0055429547574680e-02  1.9878231663809948e-02  1.9729578253703195e-02  1.9606860590919976e-02  1.9507217225410045e-02  1.9427702653094646e-02  1.9365419730837490e-02  1.9317618124556103e-02  1.9281762381369999e-02  1.9255574118225163e-02  1.9237053250498466e-02  1.9224483194268185e-02  1.9216424719612449e-02  1.9211702641446358e-02  1.9209388880947448e-02  1.9208784821609468e-02  1.9209405230819071e-02  1.9210965428035916e-02  1.9213372821868809e-02  1.9216723448884393e-02  1.9221303688343759e-02  1.9227596855882378e-02  1.9236293914888083e-02  1.9248307065443081e-02  1.9264784417720719e-02  1.9287123385703368e-02  1.9316979836746802e-02  1.9356269428520465e-02  1.9407157029216755e-02  1.9472029741025035e-02  1.9553448921071769e-02  1.9654076791988606e-02  1.9776573938184841e-02  1.9923465116218210e-02  2.0096972406744448e-02  2.0298816618901684e-02  2.0529989579551350e-02  2.0790501016632434e-02  2.1079103481919846e-02  2.1392996353155148e-02  2.1727504906062518e-02  2.2075722851496803e-02  2.2428097867332589e-02  2.2771932826143364e-02  2.3090777206635462e-02  2.3363704101592060e-02  2.3564523083882297e-02  2.3661084648045450e-02  2.3614998718297545e-02  2.3382305739646066e-02  2.2915842567259599e-02  2.2170099101654329e-02  2.1109059601425392e-02  1.9716692714829655e-02  1.8008486561574263e-02  1.6041276461916755e-02  1.3918281765465824e-02  1.1786306653365945e-02  9.8202295724522347e-03  8.1872338780848136e-03  6.9924194932997358e-03  6.2364001674303409e-03  5.8273433221278370e-03  5.6416556508429982e-03  5.5768756212145228e-03  5.5651550786311090e-03  5.5842434018864365e-03  1.6884135810472142e-02  1.6870294930663901e-02  5.5684171876985789e-03  5.5637178018577010e-03  5.6165250590745038e-03  5.7794852345606704e-03  6.1904746395194509e-03  7.0359100439958116e-03  8.4822243631633536e-03  1.0577961509044789e-02  1.3228058531513811e-02  1.6257085641500642e-02  1.9476695395263106e-02  2.2712368399106425e-02  2.5811915559471245e-02  2.8655671046401630e-02  3.1165191435330076e-02  3.3303869234370224e-02  3.5069612635512101e-02  3.6483864638767322e-02  3.7581061189870632e-02  3.8400678594025357e-02  3.8982249967520519e-02  3.9362777238415005e-02  3.9575708710262752e-02  3.9650769059953392e-02  3.9614161296184856e-02  3.9488873305253538e-02  3.9294970347853217e-02  3.9049840613586052e-02  3.8768400944703220e-02  3.8463282198002872e-02  3.8145012057699566e-02  3.7822206133533376e-02  3.7501770684968856e-02  3.7189114457368076e-02  3.6888363554593503e-02  3.6602571913956106e-02  3.6333920213260665e-02  3.6083897370213544e-02  3.5853460645899796e-02  3.5643172308564897e-02  3.5453312582066653e-02  3.5283970011213243e-02  3.5135111376905268e-02  3.5006633905990708e-02  3.4898402775497238e-02  3.4810276909877189e-02  3.4742125852233609e-02  3.4693840146192478e-02  3.4665337261351181e-02  3.4656564640091890e-02  3.4667500981884466e-02  3.4698156417033194e-02  3.4748571773141411e-02  3.4818816673672641e-02  3.4908985747825937e-02  3.5019191778974425e-02  3.5149554155018838e-02  3.5300180537125997e-02  3.5471139267738760e-02  3.5662419718208660e-02  3.5873877595342794e-02  3.6105162269217214e-02  3.6355623515313927e-02  3.6624195743141387e-02  3.6909258902480993e-02  3.7208476784988183e-02  3.7518615293126313e-02  3.7835345301734241e-02  3.8153036629766039e-02  3.8464550918795776e-02  3.8761041324059872e-02  3.9031765226866778e-02  3.9263912118997275e-02  3.9442442318087564e-02  3.9549924051399565e-02  3.9566349188036448e-02  3.9468906974430479e-02  3.9231710233907230e-02  3.8825514519599119e-02  3.8217566603062955e-02  3.7371880324181095e-02  3.6250459168224676e-02  3.4816201464433996e-02  3.3038263029854471e-02  3.0900207111372001e-02  2.8410002291629259e-02  2.5608848437239012e-02  2.2574044744311086e-02  1.9412628600655527e-02  1.6250871597924217e-02  1.3235822248471758e-02  1.0553389606718292e-02  8.4143206235471214e-03  6.9540067378012233e-03  6.1283861346221003e-03  5.7469289282116049e-03  5.6039006372364097e-03  5.5592151296421791e-03  5.5720913017808541e-03  1.6876383842977072e-02  1.6859538105459732e-02  5.5518368517258436e-03  5.5618197169528816e-03  5.6800075203822060e-03  6.0198209939408345e-03  6.8549412751858965e-03  8.4908165625274881e-03  1.1073995487722484e-02  1.4493352233198014e-02  1.8511074356792723e-02  2.2923737197031370e-02  2.7562445191766385e-02  3.2236254271776593e-02  3.6737544970612337e-02  4.0886040186036067e-02  4.4560654002163372e-02  4.7705123375615603e-02  5.0315905871964321e-02  5.2424028785287013e-02  5.4078570735106031e-02  5.5334876340383733e-02  5.6247598232590922e-02  5.6867358041234536e-02  5.7239629053512486e-02  5.7404747930070624e-02  5.7398366198482875e-02  5.7251980412735534e-02  5.6993393062988229e-02  5.6647072468620510e-02  5.6234430980950378e-02  5.5774054800844512e-02  5.5281914867761323e-02  5.4771578125125439e-02  5.4254428017095763e-02  5.3739894924593107e-02  5.3235692048692211e-02  5.2748049758571398e-02  5.2281941023231263e-02  5.1841291452810821e-02  5.1429169143841547e-02  5.1047951411343273e-02  5.0699467293649811e-02  5.0385116232382780e-02  5.0105964463776909e-02  4.9862821415024725e-02  4.9656298797029028e-02  4.9486855193457413e-02  4.9354828839721268e-02  4.9260461017083410e-02  4.9203912113114090e-02  4.9185271979164558e-02  4.9204565755003205e-02  4.9261755857747815e-02  4.9356740357141084e-02  4.9489347483198151e-02  4.9659325527276553e-02  4.9866326931719725e-02  5.0109884900633742e-02  5.0389380438587691e-02  5.0703997357929471e-02  5.1052662544492963e-02  5.1433968670322364e-02  5.1846076687641129e-02  5.2286595882699065e-02  5.2752440062569309e-02  5.3239659660565500e-02  5.3743251115187331e-02  5.4256946744126927e-02  5.4772990229321153e-02  5.5281904465744020e-02  5.5772259304946226e-02  5.6230446016056285e-02  5.6640462321294487e-02  5.6983705953934732e-02  5.7238765562165443e-02  5.7381186241217741e-02  5.7383175856766597e-02  5.7213214268857893e-02  5.6835543267219645e-02  5.6209571760271408e-02  5.5289359292467026e-02  5.4023576507885279e-02  5.2356702865306498e-02  5.0232663206149303e-02  4.7602425373490291e-02  4.4436824458337229e-02  4.0744322082999523e-02  3.6589863298750004e-02  3.2105605273392554e-02  2.7479553523871564e-02  2.2912065573039882e-02  1.8559801244090506e-02  1.4542256305528026e-02  1.1055196685908710e-02  8.4028355866356628e-03  6.7574897987664351e-03  5.9583454824697788e-03  5.6545548153800170e-03  5.5537424090203423e-03  5.5565319224035433e-03  1.6866731680214270e-02  1.6848623821973635e-02  5.5327967418095239e-03  5.5697816055149413e-03  5.8212767346274945e-03  6.5506267666541676e-03  8.2559861686861569e-03  1.1298388363080626e-02  1.5580004004810178e-02  2.0688058380855627e-02  2.6344956338687726e-02  3.2460745495497913e-02  3.8870215356723567e-02  4.5259445485470021e-02  5.1283833355643807e-02  5.6679393410561107e-02  6.1301935339034816e-02  6.5114880273471815e-02  6.8156223651371445e-02  7.0504543047829271e-02  7.2253189909146753e-02  7.3494470369632109e-02  7.4311941429433842e-02  7.4777959025120647e-02  7.4954011879802884e-02  7.4892185207323145e-02  7.4636831139953716e-02  7.4226029251429931e-02  7.3692714436898066e-02  7.3065492957393618e-02  7.2369220731945128e-02  7.1625424125932730e-02  7.0852629221304878e-02  7.0066645534489963e-02  6.9280831514979213e-02  6.8506354696573513e-02  6.7752449566632456e-02  6.7026670525793114e-02  6.6335134757957048e-02  6.5682749438141369e-02  6.5073418593904281e-02  6.4510226456575975e-02  6.3995595813169326e-02  6.3531421386919279e-02  6.3119179502304917e-02  6.2760016162370758e-02  6.2454816146482975e-02  6.2204255977543130e-02  6.2008843511157895e-02  6.1868946710367988e-02  6.1784813791877745e-02  6.1756586495071694e-02  6.1784307750021000e-02  6.1867924508728252e-02  6.2007285986545813e-02  6.2202137041112236e-02  6.2452105894750566e-02  6.2756684889357164e-02  6.3115202484114855e-02  6.3526784265255806e-02  6.3990300369610537e-02  6.4504296507115200e-02  6.5066905721139240e-02  6.5675738238513762e-02  6.6327747315794980e-02  6.7019069877270993e-02  6.7744842030895425e-02  6.8498991133121037e-02  6.9274007831315751e-02  7.0060703068575758e-02  7.0847955986500594e-02  7.1622458236687711e-02  7.2368457551088700e-02  7.3067497483679314e-02  7.3698139969266482e-02  7.4235642147945563e-02  7.4651539152874327e-02  7.4913062978144887e-02  7.4982311247783845e-02  7.4815083435306823e-02  7.4359353051468111e-02  7.3553486949198721e-02  7.2324620373228482e-02  7.0588117682759549e-02  6.8249819647900639e-02  6.5213667512952198e-02  6.1397820757403757e-02  5.6761535682651396e-02  5.1341390713072789e-02  4.5287642233602640e-02  3.8879389020152061e-02  3.2483361719815779e-02  2.6424703217107968e-02  2.0829406799300346e-02  1.5695406967612065e-02  1.1284448391103277e-02  8.1409933267040744e-03  6.4432142113268025e-03  5.7693817103171901e-03  5.5543464260252506e-03  5.5380767345811722e-03  1.6855817661507705e-02  1.6841792300660741e-02  5.5143983197945695e-03  5.6057590070128374e-03  6.1494647595443392e-03  7.7290299522484469e-03  1.1089693378075348e-02  1.6318142478206642e-02  2.2684185303759333e-02  2.9578711733121793e-02  3.7049794999393676e-02  4.5167464148067431e-02  5.3580118632707584e-02  6.1716904542428772e-02  6.9081733546988475e-02  7.5377546780290836e-02  8.0502982269166384e-02  8.4497695081199448e-02  8.7480802355405007e-02  8.9602184993116396e-02  9.1011641203852689e-02  9.1843335688165509e-02  9.2210545967426422e-02  9.2206099488529494e-02  9.1905272979737621e-02  9.1369275521907073e-02  9.0648409245254941e-02  8.9784587590091502e-02  8.8813193879077990e-02  8.7764390964057110e-02  8.6664025711826853e-02  8.5534260265859696e-02  8.4394033551796588e-02  8.3259425734539788e-02  8.2143971688650341e-02  8.1058949202965913e-02  8.0013653445475341e-02  7.9015660436763877e-02  7.8071077521886759e-02  7.7184776934609178e-02  7.6360608547367509e-02  7.5601588831597011e-02  7.4910064484130665e-02  7.4287850589746546e-02  7.3736344410766222e-02  7.3256616856577167e-02  7.2849484211164883e-02  7.2515563019491469e-02  7.2255310999068928e-02  7.2069056661491104e-02  7.1957019976573000e-02  7.1919325962853831e-02  7.1956012578932360e-02  7.2067033746243181e-02  7.2252257764855415e-02  7.2511460836048314e-02  7.2844314802011340e-02  7.3250367696292396e-02  7.3729015158990330e-02  7.4279460322942720e-02  7.4900659415069459e-02  7.5591250114171504e-02  7.6349459714887422e-02  7.7172990415367612e-02  7.8058879678812074e-02  7.9003334586348867e-02  8.0001540384785755e-02  8.1047444988526007e-02  8.2133522729186573e-02  8.3250521770618757e-02  8.4387199793455894e-02  8.5530050906859001e-02  8.6663022258553241e-02  8.7767210273503579e-02  8.8820512530875986e-02  8.9797191035538043e-02  9.0667275876487208e-02  9.1395706794752840e-02  9.1941079893592736e-02  9.2253850771459686e-02  9.2273870055113297e-02  9.1927239560141510e-02  9.1122752879424757e-02  8.9748729126528815e-02  8.7671974057892385e-02  8.4741938087993268e-02  8.0804631792956050e-02  7.5731660461379843e-02  6.9468141131368025e-02  6.2096852103921768e-02  5.3902084225941324e-02  4.5390984473607440e-02  3.7189800065187684e-02  2.9730339742856604e-02  2.2918970391460007e-02  1.6506761320078563e-02  1.1062776684763711e-02  7.5807738045590572e-03  6.0481599346648004e-03  5.5749451989054819e-03  5.5189403035371615e-03  1.6845882706444812e-02  1.6848322942216665e-02  5.5034837501385849e-03  5.7149588602382817e-03  6.9199905235584266e-03  1.0246897391003588e-02  1.6359087711186299e-02  2.4288628913649593e-02  3.2628577785928023e-02  4.1343832061488756e-02  5.0992373922595265e-02  6.1400453147265700e-02  7.1787338518404187e-02  8.1358207687749706e-02  8.9595326054669744e-02  9.6284075903782990e-02  1.0143640338605001e-01  1.0519804382730419e-01  1.0777297727398844e-01  1.0937365143439523e-01  1.1019411513458637e-01  1.103992843