<?xml version="1.0"?>
<VTKFile type="UnstructuredGrid"  version="0.1"  >
<UnstructuredGrid>
<Piece  NumberOfPoints="1089" NumberOfCells="2048">
<Points>
<DataArray  type="Float64"  NumberOfComponents="3"  format="ascii">0 0 0  0.03125 0 0  0.0625 0 0  0.09375 0 0  0.125 0 0  0.15625 0 0  0.1875 0 0  0.21875 0 0  0.25 0 0  0.28125 0 0  0.3125 0 0  0.34375 0 0  0.375 0 0  0.40625 0 0  0.4375 0 0  0.46875 0 0  0.5 0 0  0.53125 0 0  0.5625 0 0  0.59375 0 0  0.625 0 0  0.65625 0 0  0.6875 0 0  0.71875 0 0  0.75 0 0  0.78125 0 0  0.8125 0 0  0.84375 0 0  0.875 0 0  0.90625 0 0  0.9375 0 0  0.96875 0 0  1 0 0  0 0.03125 0  0.03125 0.03125 0  0.0625 0.03125 0  0.09375 0.03125 0  0.125 0.03125 0  0.15625 0.03125 0  0.1875 0.03125 0  0.21875 0.03125 0  0.25 0.03125 0  0.28125 0.03125 0  0.3125 0.03125 0  0.34375 0.03125 0  0.375 0.03125 0  0.40625 0.03125 0  0.4375 0.03125 0  0.46875 0.03125 0  0.5 0.03125 0  0.53125 0.03125 0  0.5625 0.03125 0  0.59375 0.03125 0  0.625 0.03125 0  0.65625 0.03125 0  0.6875 0.03125 0  0.71875 0.03125 0  0.75 0.03125 0  0.78125 0.03125 0  0.8125 0.03125 0  0.84375 0.03125 0  0.875 0.03125 0  0.90625 0.03125 0  0.9375 0.03125 0  0.96875 0.03125 0  1 0.03125 0  0 0.0625 0  0.03125 0.0625 0  0.0625 0.0625 0  0.09375 0.0625 0  0.125 0.0625 0  0.15625 0.0625 0  0.1875 0.0625 0  0.21875 0.0625 0  0.25 0.0625 0  0.28125 0.0625 0  0.3125 0.0625 0  0.34375 0.0625 0  0.375 0.0625 0  0.40625 0.0625 0  0.4375 0.0625 0  0.46875 0.0625 0  0.5 0.0625 0  0.53125 0.0625 0  0.5625 0.0625 0  0.59375 0.0625 0  0.625 0.0625 0  0.65625 0.0625 0  0.6875 0.0625 0  0.71875 0.0625 0  0.75 0.0625 0  0.78125 0.0625 0  0.8125 0.0625 0  0.84375 0.0625 0  0.875 0.0625 0  0.90625 0.0625 0  0.9375 0.0625 0  0.96875 0.0625 0  1 0.0625 0  0 0.09375 0  0.03125 0.09375 0  0.0625 0.09375 0  0.09375 0.09375 0  0.125 0.09375 0  0.15625 0.09375 0  0.1875 0.09375 0  0.21875 0.09375 0  0.25 0.09375 0  0.28125 0.09375 0  0.3125 0.09375 0  0.34375 0.09375 0  0.375 0.09375 0  0.40625 0.09375 0  0.4375 0.09375 0  0.46875 0.09375 0  0.5 0.09375 0  0.53125 0.09375 0  0.5625 0.09375 0  0.59375 0.09375 0  0.625 0.09375 0  0.65625 0.09375 0  0.6875 0.09375 0  0.71875 0.09375 0  0.75 0.09375 0  0.78125 0.09375 0  0.8125 0.09375 0  0.84375 0.09375 0  0.875 0.09375 0  0.90625 0.09375 0  0.9375 0.09375 0  0.96875 0.09375 0  1 0.09375 0  0 0.125 0  0.03125 0.125 0  0.0625 0.125 0  0.09375 0.125 0  0.125 0.125 0  0.15625 0.125 0  0.1875 0.125 0  0.21875 0.125 0  0.25 0.125 0  0.28125 0.125 0  0.3125 0.125 0  0.34375 0.125 0  0.375 0.125 0  0.40625 0.125 0  0.4375 0.125 0  0.46875 0.125 0  0.5 0.125 0  0.53125 0.125 0  0.5625 0.125 0  0.59375 0.125 0  0.625 0.125 0  0.65625 0.125 0  0.6875 0.125 0  0.71875 0.125 0  0.75 0.125 0  0.78125 0.125 0  0.8125 0.125 0  0.84375 0.125 0  0.875 0.125 0  0.90625 0.125 0  0.9375 0.125 0  0.96875 0.125 0  1 0.125 0  0 0.15625 0  0.03125 0.15625 0  0.0625 0.15625 0  0.09375 0.15625 0  0.125 0.15625 0  0.15625 0.15625 0  0.1875 0.15625 0  0.21875 0.15625 0  0.25 0.15625 0  0.28125 0.15625 0  0.3125 0.15625 0  0.34375 0.15625 0  0.375 0.15625 0  0.40625 0.15625 0  0.4375 0.15625 0  0.46875 0.15625 0  0.5 0.15625 0  0.53125 0.15625 0  0.5625 0.15625 0  0.59375 0.15625 0  0.625 0.15625 0  0.65625 0.15625 0  0.6875 0.15625 0  0.71875 0.15625 0  0.75 0.15625 0  0.78125 0.15625 0  0.8125 0.15625 0  0.84375 0.15625 0  0.875 0.15625 0  0.90625 0.15625 0  0.9375 0.15625 0  0.96875 0.15625 0  1 0.15625 0  0 0.1875 0  0.03125 0.1875 0  0.0625 0.1875 0  0.09375 0.1875 0  0.125 0.1875 0  0.15625 0.1875 0  0.1875 0.1875 0  0.21875 0.1875 0  0.25 0.1875 0  0.28125 0.1875 0  0.3125 0.1875 0  0.34375 0.1875 0  0.375 0.1875 0  0.40625 0.1875 0  0.4375 0.1875 0  0.46875 0.1875 0  0.5 0.1875 0  0.53125 0.1875 0  0.5625 0.1875 0  0.59375 0.1875 0  0.625 0.1875 0  0.65625 0.1875 0  0.6875 0.1875 0  0.71875 0.1875 0  0.75 0.1875 0  0.78125 0.1875 0  0.8125 0.1875 0  0.84375 0.1875 0  0.875 0.1875 0  0.90625 0.1875 0  0.9375 0.1875 0  0.96875 0.1875 0  1 0.1875 0  0 0.21875 0  0.03125 0.21875 0  0.0625 0.21875 0  0.09375 0.21875 0  0.125 0.21875 0  0.15625 0.21875 0  0.1875 0.21875 0  0.21875 0.21875 0  0.25 0.21875 0  0.28125 0.21875 0  0.3125 0.21875 0  0.34375 0.21875 0  0.375 0.21875 0  0.40625 0.21875 0  0.4375 0.21875 0  0.46875 0.21875 0  0.5 0.21875 0  0.53125 0.21875 0  0.5625 0.21875 0  0.59375 0.21875 0  0.625 0.21875 0  0.65625 0.21875 0  0.6875 0.21875 0  0.71875 0.21875 0  0.75 0.21875 0  0.78125 0.21875 0  0.8125 0.21875 0  0.84375 0.21875 0  0.875 0.21875 0  0.90625 0.21875 0  0.9375 0.21875 0  0.96875 0.21875 0  1 0.21875 0  0 0.25 0  0.03125 0.25 0  0.0625 0.25 0  0.09375 0.25 0  0.125 0.25 0  0.15625 0.25 0  0.1875 0.25 0  0.21875 0.25 0  0.25 0.25 0  0.28125 0.25 0  0.3125 0.25 0  0.34375 0.25 0  0.375 0.25 0  0.40625 0.25 0  0.4375 0.25 0  0.46875 0.25 0  0.5 0.25 0  0.53125 0.25 0  0.5625 0.25 0  0.59375 0.25 0  0.625 0.25 0  0.65625 0.25 0  0.6875 0.25 0  0.71875 0.25 0  0.75 0.25 0  0.78125 0.25 0  0.8125 0.25 0  0.84375 0.25 0  0.875 0.25 0  0.90625 0.25 0  0.9375 0.25 0  0.96875 0.25 0  1 0.25 0  0 0.28125 0  0.03125 0.28125 0  0.0625 0.28125 0  0.09375 0.28125 0  0.125 0.28125 0  0.15625 0.28125 0  0.1875 0.28125 0  0.21875 0.28125 0  0.25 0.28125 0  0.28125 0.28125 0  0.3125 0.28125 0  0.34375 0.28125 0  0.375 0.28125 0  0.40625 0.28125 0  0.4375 0.28125 0  0.46875 0.28125 0  0.5 0.28125 0  0.53125 0.28125 0  0.5625 0.28125 0  0.59375 0.28125 0  0.625 0.28125 0  0.65625 0.28125 0  0.6875 0.28125 0  0.71875 0.28125 0  0.75 0.28125 0  0.78125 0.28125 0  0.8125 0.28125 0  0.84375 0.28125 0  0.875 0.28125 0  0.90625 0.28125 0  0.9375 0.28125 0  0.96875 0.28125 0  1 0.28125 0  0 0.3125 0  0.03125 0.3125 0  0.0625 0.3125 0  0.09375 0.3125 0  0.125 0.3125 0  0.15625 0.3125 0  0.1875 0.3125 0  0.21875 0.3125 0  0.25 0.3125 0  0.28125 0.3125 0  0.3125 0.3125 0  0.34375 0.3125 0  0.375 0.3125 0  0.40625 0.3125 0  0.4375 0.3125 0  0.46875 0.3125 0  0.5 0.3125 0  0.53125 0.3125 0  0.5625 0.3125 0  0.59375 0.3125 0  0.625 0.3125 0  0.65625 0.3125 0  0.6875 0.3125 0  0.71875 0.3125 0  0.75 0.3125 0  0.78125 0.3125 0  0.8125 0.3125 0  0.84375 0.3125 0  0.875 0.3125 0  0.90625 0.3125 0  0.9375 0.3125 0  0.96875 0.3125 0  1 0.3125 0  0 0.34375 0  0.03125 0.34375 0  0.0625 0.34375 0  0.09375 0.34375 0  0.125 0.34375 0  0.15625 0.34375 0  0.1875 0.34375 0  0.21875 0.34375 0  0.25 0.34375 0  0.28125 0.34375 0  0.3125 0.34375 0  0.34375 0.34375 0  0.375 0.34375 0  0.40625 0.34375 0  0.4375 0.34375 0  0.46875 0.34375 0  0.5 0.34375 0  0.53125 0.34375 0  0.5625 0.34375 0  0.59375 0.34375 0  0.625 0.34375 0  0.65625 0.34375 0  0.6875 0.34375 0  0.71875 0.34375 0  0.75 0.34375 0  0.78125 0.34375 0  0.8125 0.34375 0  0.84375 0.34375 0  0.875 0.34375 0  0.90625 0.34375 0  0.9375 0.34375 0  0.96875 0.34375 0  1 0.34375 0  0 0.375 0  0.03125 0.375 0  0.0625 0.375 0  0.09375 0.375 0  0.125 0.375 0  0.15625 0.375 0  0.1875 0.375 0  0.21875 0.375 0  0.25 0.375 0  0.28125 0.375 0  0.3125 0.375 0  0.34375 0.375 0  0.375 0.375 0  0.40625 0.375 0  0.4375 0.375 0  0.46875 0.375 0  0.5 0.375 0  0.53125 0.375 0  0.5625 0.375 0  0.59375 0.375 0  0.625 0.375 0  0.65625 0.375 0  0.6875 0.375 0  0.71875 0.375 0  0.75 0.375 0  0.78125 0.375 0  0.8125 0.375 0  0.84375 0.375 0  0.875 0.375 0  0.90625 0.375 0  0.9375 0.375 0  0.96875 0.375 0  1 0.375 0  0 0.40625 0  0.03125 0.40625 0  0.0625 0.40625 0  0.09375 0.40625 0  0.125 0.40625 0  0.15625 0.40625 0  0.1875 0.40625 0  0.21875 0.40625 0  0.25 0.40625 0  0.28125 0.40625 0  0.3125 0.40625 0  0.34375 0.40625 0  0.375 0.40625 0  0.40625 0.40625 0  0.4375 0.40625 0  0.46875 0.40625 0  0.5 0.40625 0  0.53125 0.40625 0  0.5625 0.40625 0  0.59375 0.40625 0  0.625 0.40625 0  0.65625 0.40625 0  0.6875 0.40625 0  0.71875 0.40625 0  0.75 0.40625 0  0.78125 0.40625 0  0.8125 0.40625 0  0.84375 0.40625 0  0.875 0.40625 0  0.90625 0.40625 0  0.9375 0.40625 0  0.96875 0.40625 0  1 0.40625 0  0 0.4375 0  0.03125 0.4375 0  0.0625 0.4375 0  0.09375 0.4375 0  0.125 0.4375 0  0.15625 0.4375 0  0.1875 0.4375 0  0.21875 0.4375 0  0.25 0.4375 0  0.28125 0.4375 0  0.3125 0.4375 0  0.34375 0.4375 0  0.375 0.4375 0  0.40625 0.4375 0  0.4375 0.4375 0  0.46875 0.4375 0  0.5 0.4375 0  0.53125 0.4375 0  0.5625 0.4375 0  0.59375 0.4375 0  0.625 0.4375 0  0.65625 0.4375 0  0.6875 0.4375 0  0.71875 0.4375 0  0.75 0.4375 0  0.78125 0.4375 0  0.8125 0.4375 0  0.84375 0.4375 0  0.875 0.4375 0  0.90625 0.4375 0  0.9375 0.4375 0  0.96875 0.4375 0  1 0.4375 0  0 0.46875 0  0.03125 0.46875 0  0.0625 0.46875 0  0.09375 0.46875 0  0.125 0.46875 0  0.15625 0.46875 0  0.1875 0.46875 0  0.21875 0.46875 0  0.25 0.46875 0  0.28125 0.46875 0  0.3125 0.46875 0  0.34375 0.46875 0  0.375 0.46875 0  0.40625 0.46875 0  0.4375 0.46875 0  0.46875 0.46875 0  0.5 0.46875 0  0.53125 0.46875 0  0.5625 0.46875 0  0.59375 0.46875 0  0.625 0.46875 0  0.65625 0.46875 0  0.6875 0.46875 0  0.71875 0.46875 0  0.75 0.46875 0  0.78125 0.46875 0  0.8125 0.46875 0  0.84375 0.46875 0  0.875 0.46875 0  0.90625 0.46875 0  0.9375 0.46875 0  0.96875 0.46875 0  1 0.46875 0  0 0.5 0  0.03125 0.5 0  0.0625 0.5 0  0.09375 0.5 0  0.125 0.5 0  0.15625 0.5 0  0.1875 0.5 0  0.21875 0.5 0  0.25 0.5 0  0.28125 0.5 0  0.3125 0.5 0  0.34375 0.5 0  0.375 0.5 0  0.40625 0.5 0  0.4375 0.5 0  0.46875 0.5 0  0.5 0.5 0  0.53125 0.5 0  0.5625 0.5 0  0.59375 0.5 0  0.625 0.5 0  0.65625 0.5 0  0.6875 0.5 0  0.71875 0.5 0  0.75 0.5 0  0.78125 0.5 0  0.8125 0.5 0  0.84375 0.5 0  0.875 0.5 0  0.90625 0.5 0  0.9375 0.5 0  0.96875 0.5 0  1 0.5 0  0 0.53125 0  0.03125 0.53125 0  0.0625 0.53125 0  0.09375 0.53125 0  0.125 0.53125 0  0.15625 0.53125 0  0.1875 0.53125 0  0.21875 0.53125 0  0.25 0.53125 0  0.28125 0.53125 0  0.3125 0.53125 0  0.34375 0.53125 0  0.375 0.53125 0  0.40625 0.53125 0  0.4375 0.53125 0  0.46875 0.53125 0  0.5 0.53125 0  0.53125 0.53125 0  0.5625 0.53125 0  0.59375 0.53125 0  0.625 0.53125 0  0.65625 0.53125 0  0.6875 0.53125 0  0.71875 0.53125 0  0.75 0.53125 0  0.78125 0.531
[...]
<PointData  Scalars="ControlVisualisation"> 
<DataArray  type="Float64"  Name="ControlVisualisation"  format="ascii">4.4115066181279422e-01  4.3949064275308519e-01  4.2930641599996466e-01  4.2196405671635084e-01  4.0925875585417781e-01  3.9303048344868102e-01  3.7653976757616231e-01  3.5903582880473262e-01  3.4250749859965174e-01  3.2385061908576823e-01  3.0933235476538573e-01  2.9374641237950189e-01  2.8171133566620171e-01  2.7343139218925544e-01  2.6519422972012907e-01  2.6353240750199664e-01  2.6115184362947647e-01  2.6572512994371239e-01  2.6948900782655438e-01  2.8000560452897633e-01  2.8998244645918070e-01  3.0449695736815163e-01  3.2017998969257128e-01  3.3677623428380271e-01  3.5458994096186036e-01  3.7088728386871317e-01  3.8787477786604285e-01  4.0402378075853496e-01  4.2008116445018140e-01  4.3232894987919934e-01  4.3933621550136076e-01  4.4648435944480730e-01  4.4883910032339175e-01  4.4074305532814023e-01  4.3290844933344358e-01  4.3296104398121837e-01  4.1960986930608241e-01  4.0276736321456025e-01  3.8990967951359207e-01  3.7430445854136341e-01  3.5876201815031022e-01  3.3756761599005969e-01  3.2593834884417744e-01  3.0379573416235384e-01  2.9336706382778044e-01  2.8266147579769352e-01  2.6696378593807257e-01  2.6872034347088086e-01  2.5661560562980540e-01  2.6437386764901227e-01  2.5874972886095482e-01  2.7292093670026829e-01  2.7271606640094376e-01  2.9139934557057712e-01  3.0069174870003990e-01  3.1635479003933759e-01  3.3424389786595649e-01  3.5053585264731596e-01  3.6838565208826241e-01  3.8393926206381368e-01  4.0014776219831089e-01  4.1264110794100239e-01  4.2806334738227975e-01  4.3998441347979722e-01  4.4149188627705593e-01  4.4725319837241834e-01  4.3527003638967532e-01  4.3534657305229374e-01  4.2647376247360097e-01  4.1372857687614145e-01  4.0955381046268913e-01  3.9207586086172147e-01  3.7283385782703671e-01  3.5019017726394602e-01  3.3614939617889700e-01  3.1324883810257403e-01  3.0071476349846393e-01  2.8555087075756158e-01  2.6682490044972751e-01  2.6887847506628409e-01  2.4907640971100967e-01  2.5711865088603447e-01  2.4714727907617420e-01  2.5905246962908052e-01  2.5410168435210700e-01  2.7487838847627538e-01  2.7509538077903689e-01  2.9635806922741215e-01  3.0892799151848899e-01  3.2669048868717843e-01  3.4472606452495580e-01  3.6307139263378380e-01  3.8246663429605182e-01  4.0103027102831051e-01  4.1876190085818332e-01  4.2330132831649470e-01  4.3067728094614749e-01  4.4172158565437392e-01  4.4342896476965143e-01  4.3302489154127050e-01  4.3094048691081555e-01  4.1872408305110248e-01  4.1868558581733667e-01  3.9353293592474498e-01  3.7829922429186730e-01  3.6061369389510750e-01  3.4317957395857690e-01  3.2597802321655051e-01  3.0857637533093096e-01  2.8928811342291166e-01  2.7304101270145043e-01  2.6916715147771086e-01  2.4650234870560270e-01  2.5141540520183570e-01  2.3970243958122378e-01  2.4483671684135569e-01  2.4258419202873388e-01  2.5485772062035750e-01  2.5545265355641494e-01  2.7610691749791910e-01  2.8458624602148430e-01  3.0156414989370739e-01  3.1926318260580416e-01  3.3862947064296017e-01  3.5369685065767920e-01  3.7392301130347311e-01  3.8912579751185367e-01  4.0330963592972768e-01  4.2865394578970029e-01  4.2752468714509484e-01  4.3517941470046928e-01  4.4023094418787950e-01  4.2815850384411291e-01  4.2112640105911187e-01  4.2659235597512518e-01  4.0046496624278666e-01  3.9009821376325482e-01  3.8224796700554520e-01  3.5821049227882829e-01  3.3538151730886046e-01  3.1587312995402500e-01  2.9348322800270582e-01  2.7582742956609230e-01  2.6618900932051487e-01  2.4306914555604892e-01  2.4308884215458004e-01  2.2927506841704495e-01  2.2639680480998464e-01  2.2874721099560538e-01  2.2839192621924581e-01  2.3399332699412326e-01  2.4685796492314185e-01  2.5394775184164586e-01  2.7190905941504001e-01  2.8811231223019024e-01  3.0459261552937872e-01  3.2511665202042533e-01  3.4523224642339551e-01  3.6708648783637626e-01  3.9154701832106947e-01  3.9681889644952428e-01  4.0877103515447094e-01  4.3020276670319751e-01  4.2463799680917746e-01  4.3404371962833416e-01  4.2125668938458705e-01  4.1820878311289589e-01  4.1671104239799317e-01  3.9311924651947661e-01  3.9159283098622399e-01  3.6899136061303778e-01  3.3905944321765585e-01  3.2108599945606386e-01  3.0251448312274143e-01  2.8252864383976506e-01  2.6455713255567392e-01  2.4623523406607023e-01  2.3614138385861055e-01  2.2198217551447502e-01  2.1426590338345750e-01  2.1333091003933247e-01  2.1003276596114429e-01  2.1460601650309960e-01  2.2056436894032064e-01  2.2762566999404818e-01  2.4254762846611641e-01  2.5690494411532744e-01  2.7031135109175597e-01  2.9525210645239691e-01  3.1242229860742943e-01  3.2949700793524367e-01  3.4996366310209331e-01  3.7689986758932775e-01  3.9837769556632319e-01  4.0091315353586493e-01  4.2003721376830983e-01  4.1958773489522638e-01  4.2455943558505804e-01  4.1484170760048306e-01  4.1208427617470905e-01  4.0393067704943597e-01  3.8817486206413326e-01  3.7974821865487102e-01  3.4986793121438792e-01  3.3337758975546550e-01  3.1293112844334697e-01  2.9229322859369666e-01  2.6513682080131840e-01  2.4837566272339490e-01  2.3237439260912995e-01  2.1480039955990682e-01  2.0945900348312277e-01  1.9718528406323860e-01  1.9845263336353766e-01  1.9249141454407323e-01  2.0197574196105239e-01  1.9890578071586840e-01  2.1931109341232799e-01  2.1960870272464475e-01  2.4324267073046957e-01  2.5505101947202596e-01  2.7221623881139190e-01  3.0247813188851630e-01  3.2009980896832091e-01  3.4136749740473915e-01  3.5905107749640036e-01  3.8331134340267947e-01  3.9369949663207510e-01  4.0797641441241272e-01  4.1086560191458665e-01  4.1566037244310589e-01  4.0768730846335616e-01  4.0134199802022796e-01  3.9663306511502633e-01  3.7918521366664409e-01  3.6550811470950328e-01  3.4059368001118784e-01  3.2331737371008706e-01  2.9579120222710859e-01  2.6800061379524437e-01  2.5485230042683077e-01  2.3153946803132935e-01  2.1420608890340490e-01  2.0904065558333301e-01  1.8951594244674216e-01  1.9068106256825515e-01  1.7736890904995437e-01  1.8815674517310013e-01  1.7781489392001582e-01  1.9356737900814480e-01  1.9160640910371673e-01  2.1540461483603968e-01  2.1823973869910526e-01  2.4268549690318503e-01  2.5710823849776104e-01  2.7655586621027750e-01  3.0222133955432745e-01  3.2939616811702149e-01  3.4749869144928336e-01  3.7026827866143064e-01  3.8173814798350769e-01  3.9696542706042587e-01  4.0011317682644193e-01  4.0680190694727036e-01  3.9864127823653317e-01  3.9437303491782438e-01  3.8472262165444820e-01  3.6959603726846191e-01  3.5066385727762950e-01  3.3118948683174526e-01  3.1145140296606333e-01  2.7245671691863893e-01  2.6802735284291695e-01  2.3799357776334451e-01  2.0971980568365020e-01  2.0928667988916427e-01  1.8280179268045510e-01  1.8280258781883965e-01  1.6989068871123272e-01  1.7449514625156529e-01  1.6433245390371670e-01  1.7308538824512029e-01  1.7275114049483573e-01  1.8097041673372258e-01  1.8628515866323211e-01  2.0979836157597903e-01  2.1513772827183622e-01  2.4387549743479661e-01  2.6820260036122545e-01  2.8129458091187237e-01  3.1506119296500218e-01  3.3609719063766591e-01  3.5343087491515651e-01  3.7349834299281387e-01  3.8333883748845748e-01  3.8983846676632156e-01  3.9766308165438408e-01  3.8897408299161185e-01  3.8330219557720036e-01  3.7612019382250866e-01  3.5750410162138235e-01  3.3988614196848410e-01  3.2465844664343418e-01  2.8661113613167860e-01  2.6799792330814809e-01  2.5005152696546590e-01  2.0442538131275415e-01  2.0684429832379381e-01  1.7872782034552537e-01  1.7973926719407579e-01  1.6613299869357029e-01  1.6774815099031004e-01  1.5740160341299236e-01  1.6203972519832854e-01  1.6141046736676168e-01  1.5733811178845980e-01  1.7072589294833862e-01  1.7287564718321805e-01  1.8141382759931013e-01  2.0602939686947830e-01  2.1101253660124442e-01  2.5051945176304891e-01  2.6920419204314677e-01  2.9656612071214816e-01  3.2682175875576264e-01  3.4151216125447564e-01  3.5892110289813595e-01  3.7578506192625488e-01  3.7745638412403665e-01  3.8675103100801705e-01  3.7920819884293644e-01  3.7372229760225273e-01  3.6400251801251565e-01  3.4325157316169053e-01  3.2969211782212204e-01  3.0027559095878503e-01  2.7592077606922599e-01  2.5412026724869158e-01  2.1310347077519179e-01  2.0287337146616899e-01  1.7242205785860265e-01  1.7053664676887390e-01  1.5439807812245257e-01  1.4648302201997657e-01  1.5293188958138584e-01  1.4418515238731225e-01  1.5412608481585083e-01  1.3890335457236155e-01  1.5800051620985150e-01  1.3725410633913593e-01  1.5508808625754125e-01  1.6434223907646367e-01  1.7194721019574613e-01  2.0239068869772056e-01  2.1779938436095966e-01  2.5214587356021906e-01  2.7815253754442937e-01  3.0950033228118495e-01  3.2946304214143962e-01  3.4457704755939345e-01  3.6062473760183422e-01  3.6854923371419657e-01  3.7561502590661400e-01  3.6994341973286521e-01  3.6369360689608621e-01  3.5457313268297791e-01  3.3416513763458744e-01  3.1565973104568956e-01  2.9155617024520347e-01  2.6785107101430983e-01  2.1958424586102637e-01  2.0889572370469239e-01  1.7093398728942322e-01  1.5315694309216987e-01  1.4051738675352760e-01  1.2547524495160339e-01  1.3579219652028718e-01  1.2885388034783440e-01  1.3454126012080911e-01  1.2580087696175485e-01  1.3397207714412304e-01  1.2684083892895540e-01  1.3906016819779304e-01  1.2439899861229625e-01  1.3849039757949450e-01  1.5165204754542017e-01  1.6805248350104851e-01  2.0755044648389970e-01  2.2279204452475218e-01  2.6632766311908318e-01  2.9328493560191360e-01  3.1926927060343141e-01  3.3408792818931682e-01  3.5139737755031836e-01  3.5561923410889501e-01  3.6637949180371193e-01  3.6101157526717059e-01  3.5717764709627098e-01  3.4210826809490208e-01  3.2799939178948584e-01  3.0048973449803901e-01  2.8541058997114144e-01  2.3288857620330686e-01  2.1673873656110881e-01  1.8577031599216512e-01  1.4208282805976655e-01  1.2488590402396638e-01  1.1017650388141596e-01  1.0167125202610934e-01  1.0469402651232863e-01  1.0432196185087407e-01  9.6988605248166895e-02  1.1346416282865991e-01  1.1128374067277902e-01  1.1108632355292482e-01  1.0907180104546894e-01  1.1398844630868160e-01  1.0844824061562769e-01  1.2632548638094446e-01  1.3958030079979020e-01  1.7876979027733092e-01  2.1486452289181687e-01  2.3520286295843074e-01  2.8545294381330638e-01  2.9997885032767385e-01  3.2913224851171080e-01  3.3730302990444733e-01  3.4929923832368925e-01  3.5657557199917994e-01  3.5478688895105848e-01  3.4602356048829025e-01  3.4089202577026428e-01  3.1013774676404759e-01  2.9969953332571764e-01  2.5712288313323090e-01  2.3778821985758308e-01  1.9921186845803099e-01  1.5533003837608439e-01  1.1857727895588417e-01  9.9979669633697921e-02  8.2491913910951856e-02  7.1613116160271759e-02  7.3384092561574493e-02  9.7049965988703121e-02  6.7511420080387768e-02  6.7035275517850351e-02  8.0273087699208850e-02  9.2665485088184091e-02  8.0923383075217764e-02  7.8917015130422069e-02  8.3263619249911394e-02  9.8554003640626942e-02  1.2286914007431152e-01  1.4811028382725452e-01  1.9020524340957193e-01  2.3546174641377196e-01  2.5657222969342186e-01  2.9861051125803834e-01  3.0989260588570849e-01  3.3615714389136853e-01  3.3632142429087808e-01  3.4994313734988808e-01  3.4867688548903869e-01  3.4402362520636137e-01  3.2822675543002683e-01  3.1187833141475058e-01  2.8145940885772808e-01  2.6139542968670915e-01  2.1800146382563440e-01  1.7853797487248499e-01  1.3931296420675152e-01  1.0952885021475132e-01  8.1587621134380325e-02  4.7233764626069555e-02  5.0178637330862974e-02  6.8865816538033364e-02  4.3662318685329299e-02  3.2082353403738793e-02  3.7192840815664062e-02  5.0341514485687688e-02  5.7101402388471029e-02  6.5028017461825696e-02  4.3188212031112339e-02  5.6953461783818229e-02  6.5751981129296824e-02  1.0808140515739903e-01  1.3992048276412536e-01  1.7132083808701370e-01  2.1066945394602288e-01  2.5912949366850524e-01  2.7699874618680831e-01  3.1152187864631853e-01  3.2193969931174543e-01  3.3415733458344288e-01  3.4307586925530575e-01  3.4545851293229290e-01  3.3906794015318853e-01  3.2830802045557433e-01  3.0290477709498947e-01  2.8220432063192946e-01  2.4735594946563436e-01  2.1613700974337008e-01  1.7122314986595730e-01  1.3345733298539159e-01  9.4485907615159931e-02  5.7179327550918410e-02  3.9694315801827203e-03  3.1899610536658726e-02  8.2891966535132960e-03  1.4326429666824845e-03  1.0687942661269662e-03  2.0154224300003663e-03  2.5130464570232023e-02  4.4958517000693442e-02  2.9583360143251740e-02  8.0713389164650332e-03  4.0354672797822441e-02  5.2429146789504888e-02  7.9100362291203374e-02  1.3907278745895854e-01  1.6406105338850771e-01  2.1084350147800088e-01  2.4031483723077862e-01  2.7832244313934096e-01  2.9942683981836693e-01  3.2231934241414628e-01  3.2731089155047838e-01  3.3942018266757834e-01  3.4445425103911931e-01  3.3845432510264084e-01  3.2602042873669346e-01  3.0480371508481863e-01  2.7848680447071472e-01  2.5280171522222150e-01  2.1088898480331392e-01  1.6745298301239070e-01  1.2545150817877265e-01  8.8332791873191652e-02  3.3615390026748869e-02  1.2982232201394382e-02  2.1519752277569890e-03  1.4724429440375389e-03  1.1887545576416665e-03  7.3476272689879845e-04  4.0465143009774324e-04  3.9404711629347151e-04  5.6592400515718716e-04  1.5480526915217199e-03  3.5886471626476050e-03  6.4211801824198599e-03  5.9721095104599803e-02  7.3747123209422130e-02  1.2214378668833527e-01  1.7062322446753056e-01  1.9985413686040321e-01  2.4874896268261107e-01  2.6968980030564760e-01  3.0214375135164168e-01  3.1731459143105040e-01  3.2682148924841803e-01  3.3726748638286402e-01  3.4635523285047970e-01  3.3983800322300478e-01  3.2915832407234519e-01  3.0366654453018088e-01  2.8246636281074805e-01  2.4748038820891802e-01  2.1668106987502328e-01  1.7039525569275576e-01  1.2860519971883522e-01  8.4646005898890000e-02  5.0001479608912658e-02  8.9071117496187860e-03  4.2490460139272771e-03  3.0650947847375674e-03  3.4268450255696414e-03  2.7091870782634794e-02  3.9986724069835777e-02  2.0437331435799897e-03  6.9177952595154827e-04  9.2289259394491997e-04  1.5479520208862465e-03  2.2773149076473730e-03  4.6528953801531978e-02  9.2042064094116291e-02  1.3365757411875748e-01  1.6181710968491247e-01  2.1381832258619013e-01  2.3773162494480907e-01  2.7626540527626053e-01  2.9761261700448410e-01  3.2076542722785140e-01  3.2626660369026916e-01  3.3815699913574387e-01  3.5042079144915511e-01  3.4557707384777536e-01  3.2968823604384589e-01  3.1373288635940466e-01  2.8285692761999770e-01  2.6068915747318622e-01  2.1744049909753951e-01  1.8308143666956561e-01  1.3906182223075045e-01  9.5433894587697243e-02  6.7112985165325531e-02  4.6332319564955995e-02  7.1609438740862091e-02  7.2134503312684062e-02  4.0444346776557838e-02  4.0415086793075435e-02  4.2133744112833618e-02  3.5243012833673620e-02  3.3213772996840765e-02  4.0753298281754523e-02  4.2768028203790165e-02  4.1049692292450715e-02  7.2945772347759799e-02  8.3639063673765918e-02  1.3882030110065544e-01  1.8581119859013875e-01  2.0547136670659230e-01  2.5651270868371850e-01  2.7252511472666646e-01  3.0794120519687673e-01  3.1931795697050130e-01  3.3149446504119051e-01  3.4074630289302899e-01  3.5734571816217864e-01  3.4809504071159586e-01  3.4321699477071244e-01  3.1220636971526028e-01  3.0189159484236394e-01  2.5821440933823747e-01  2.3652412688676686e-01  1.9664812489136432e-01  1.6352348262412394e-01  1.2175784972068937e-01  9.3307308428690852e-02  8.3405717672171018e-02  7.9504647823459756e-02  7.8271001621430247e-02  7.4601940169749165e-02  7.7376847044066444e-02  7.4272590749274475e-02  7.7264724421806152e-02  7.4689705265419390e-02  7.5840479489647880e-02  7.2817553122742060e-02  8.8371863396703762e-02  7.8950594627204718e-02  1.2651635504724021e-01  1.7666371390895602e-01  1.8202975850580866e-01  2.3431604470000289e-01  2.4949175870661128e-01  2.9318572659220976e-01  3.0458267936376793e-01  3.3250563037723607e-01  3.3316883564514993e-01  3.4620229500253374e-01  3.6417552992261187e-01  3.5982420232005607e-01  3.4429964801702034e-01  3.3173522502415626e-01  3.0337523156579355e-01  2.8665422558617937e-01  2.3391681576565326e-01  2.1714945592869014e-01  1.8182373132522534e-01  1.5119649727202072e-01  1.2702793523577166e-01  1.1015685258520670e-01  1.1194781890160373e-01  1.0908384478388755e-01  1.0643792774799535e-01  1.1280671740025711e-01  1.1572552476735504e-01  1.1481483489020845e-01  1.0875644664744012e-01  1.1553231185028477e-01  1.1892636611362814e-01  1.1598731852804076e-01  1.2876175293844516e-01  1.6889736930348348e-01  1.6882358312649304e-01  2.1552488949692664e-01  2.2722089019830066e-01  2.8107929377617569e-01  2.9198628877742150e-01  3.2397697325842434e-01  3.3274862835703134e-01  3.4379962219557803e-01  3.5187488786736865e-01  3.7344283481363294e-01  3.6645661804545948e-01  3.5712325915517495e-01  3.3682648710405272e-01  3.2102393262247830e-01  2.9495040170459630e-01  2.6756389110991508e-01  2.2131683412367470e-01  2.1119063556152387e-01  1.6713305915128901e-01  1.6050060403845740e-01  1.3798416033609862e-01  1.2937905676788414e-01  1.3445560708009813e-01  1.3254206916319786e-01  1.3174265100996727e-01  1.3894792581676610e-01  1.3567854676209318e-01  1.3892110442116246e-01  1.3861355934889202e-01  1.3772883491090523e-01  1.3802302984835060e-01  1.7142971785857811e-01  1.6162849944861116e-01  2.1046213977016945e-01  2.1627406270028141e-01  2.6479990542732579e-01  2.8528602841983230e-01  3.1103348998956654e-01  3.2891736220820805e-01  3.4546900442213396e-01  3.5094667267022001e-01  3.5978807639529220e-01  3.8256395177903357e-01  3.7673913109717461e-01  3.6646958991590317e-01  3.4629998088307007e-01  3.3365202000451610e-01  3.0646217759310646e-01  2.8005109073482021e-01  2.5450032163267283e-01  2.1580781132898783e-01  2.0611999027950778e-01  1.7100939724664196e-01  1.7278552105462544e-01  1.5453256892410427e-01  1.5032653544131883e-01  1.4989122656197754e-01  1.5637847758114148e-01  1.4461837457850180e-01  1.5920921912364694e-01  1.5428447507852980e-01  1.5622994849431654e-01  1.5720381629808586e-01  1.7897852417262114e-01  1.7088951383423262e-01  2.0909196035352412e-01  2.1219736832006722e-01  2.5345041761254145e-01  2.7295043784685258e-01  2.9945662134624967e-01  3.2523028138563193e-01  3.3888575904688334e-01  3.5448395517772469e-01  3.5935546471849478e-01  3.6888832735125326e-01  3.9233457200050575e-01  3.8590386223743056e-01  3.7921027213944924e-01  3.6044733324226241e-01  3.4498586800598124e-01  3.3074063399911863e-01  2.9335762046140601e-01  2.7409768294263631e-01  2.5527883656086076e-01  2.0890978030672422e-01  2.1305953029460512e-01  1.8250604299247267e-01  1.8317673151795763e-01  1.7402484255279332e-01  1.7281329925772212e-01  1.6375828839109388e-01  1.8054779165788468e-01  1.6516065377801603e-01  1.7769084454587392e-01  1.7796430671222210e-01  1.8982229061683320e-01  1.8458325900349098e-01  2.1840670115127792e-01  2.0866567015245854e-01  2.5554440389419314e-01  2.7041545700284386e-01  2.8815249918196273e-01  3.2652161808577201e-01  3.3579633103853634e-01  3.5164356284783227e-01  3.6554741844536537e-01  3.7047295438612421e-01  3.7770154800284605e-01  4.0168273945712890e-01  3.9727478684627271e-01  3.8700258759656386e-01  3.7316752870488717e-01  3.5452138545403461e-01  3.3800351505261950e-01  3.1977217508386419e-01  2.8021925757195992e-01  2.7651035287061876e-01  2.4983697465116705e-01  2.1854755635065490e-01  2.2064688574421451e-01  1.9378056316631237e-01  1.9561774721598058e-01  1.8539042592018157e-01  1.9012893601126071e-01  1.8023919702508651e-01  1.9222922733020992e-01  1.8847854339291198e-01  2.0159109609036258e-01  1.9746630399052173e-01  2.2631430725094537e-01  2.2141660862543766e-01  2.5232306338931637e-01  2.7655827017977858e-01  2.7673741858520495e-01  3.1776844007575172e-01  3.3261792640149229e-01  3.4520646570778502e-01  3.6390617349823923e-01  3.7546837547428435e-01  3.8047453120778030e-01  3.8721150027795287e-01  4.0996432628087831e-01  4.0316982888840946e-01  4.0034369673204900e-01  3.818522220