<?xml version="1.0"?>
<VTKFile type="UnstructuredGrid"  version="0.1"  >
<UnstructuredGrid>
<Piece  NumberOfPoints="1089" NumberOfCells="2048">
<Points>
<DataArray  type="Float64"  NumberOfComponents="3"  format="ascii">0 0 0  0.03125 0 0  0.0625 0 0  0.09375 0 0  0.125 0 0  0.15625 0 0  0.1875 0 0  0.21875 0 0  0.25 0 0  0.28125 0 0  0.3125 0 0  0.34375 0 0  0.375 0 0  0.40625 0 0  0.4375 0 0  0.46875 0 0  0.5 0 0  0.53125 0 0  0.5625 0 0  0.59375 0 0  0.625 0 0  0.65625 0 0  0.6875 0 0  0.71875 0 0  0.75 0 0  0.78125 0 0  0.8125 0 0  0.84375 0 0  0.875 0 0  0.90625 0 0  0.9375 0 0  0.96875 0 0  1 0 0  0 0.03125 0  0.03125 0.03125 0  0.0625 0.03125 0  0.09375 0.03125 0  0.125 0.03125 0  0.15625 0.03125 0  0.1875 0.03125 0  0.21875 0.03125 0  0.25 0.03125 0  0.28125 0.03125 0  0.3125 0.03125 0  0.34375 0.03125 0  0.375 0.03125 0  0.40625 0.03125 0  0.4375 0.03125 0  0.46875 0.03125 0  0.5 0.03125 0  0.53125 0.03125 0  0.5625 0.03125 0  0.59375 0.03125 0  0.625 0.03125 0  0.65625 0.03125 0  0.6875 0.03125 0  0.71875 0.03125 0  0.75 0.03125 0  0.78125 0.03125 0  0.8125 0.03125 0  0.84375 0.03125 0  0.875 0.03125 0  0.90625 0.03125 0  0.9375 0.03125 0  0.96875 0.03125 0  1 0.03125 0  0 0.0625 0  0.03125 0.0625 0  0.0625 0.0625 0  0.09375 0.0625 0  0.125 0.0625 0  0.15625 0.0625 0  0.1875 0.0625 0  0.21875 0.0625 0  0.25 0.0625 0  0.28125 0.0625 0  0.3125 0.0625 0  0.34375 0.0625 0  0.375 0.0625 0  0.40625 0.0625 0  0.4375 0.0625 0  0.46875 0.0625 0  0.5 0.0625 0  0.53125 0.0625 0  0.5625 0.0625 0  0.59375 0.0625 0  0.625 0.0625 0  0.65625 0.0625 0  0.6875 0.0625 0  0.71875 0.0625 0  0.75 0.0625 0  0.78125 0.0625 0  0.8125 0.0625 0  0.84375 0.0625 0  0.875 0.0625 0  0.90625 0.0625 0  0.9375 0.0625 0  0.96875 0.0625 0  1 0.0625 0  0 0.09375 0  0.03125 0.09375 0  0.0625 0.09375 0  0.09375 0.09375 0  0.125 0.09375 0  0.15625 0.09375 0  0.1875 0.09375 0  0.21875 0.09375 0  0.25 0.09375 0  0.28125 0.09375 0  0.3125 0.09375 0  0.34375 0.09375 0  0.375 0.09375 0  0.40625 0.09375 0  0.4375 0.09375 0  0.46875 0.09375 0  0.5 0.09375 0  0.53125 0.09375 0  0.5625 0.09375 0  0.59375 0.09375 0  0.625 0.09375 0  0.65625 0.09375 0  0.6875 0.09375 0  0.71875 0.09375 0  0.75 0.09375 0  0.78125 0.09375 0  0.8125 0.09375 0  0.84375 0.09375 0  0.875 0.09375 0  0.90625 0.09375 0  0.9375 0.09375 0  0.96875 0.09375 0  1 0.09375 0  0 0.125 0  0.03125 0.125 0  0.0625 0.125 0  0.09375 0.125 0  0.125 0.125 0  0.15625 0.125 0  0.1875 0.125 0  0.21875 0.125 0  0.25 0.125 0  0.28125 0.125 0  0.3125 0.125 0  0.34375 0.125 0  0.375 0.125 0  0.40625 0.125 0  0.4375 0.125 0  0.46875 0.125 0  0.5 0.125 0  0.53125 0.125 0  0.5625 0.125 0  0.59375 0.125 0  0.625 0.125 0  0.65625 0.125 0  0.6875 0.125 0  0.71875 0.125 0  0.75 0.125 0  0.78125 0.125 0  0.8125 0.125 0  0.84375 0.125 0  0.875 0.125 0  0.90625 0.125 0  0.9375 0.125 0  0.96875 0.125 0  1 0.125 0  0 0.15625 0  0.03125 0.15625 0  0.0625 0.15625 0  0.09375 0.15625 0  0.125 0.15625 0  0.15625 0.15625 0  0.1875 0.15625 0  0.21875 0.15625 0  0.25 0.15625 0  0.28125 0.15625 0  0.3125 0.15625 0  0.34375 0.15625 0  0.375 0.15625 0  0.40625 0.15625 0  0.4375 0.15625 0  0.46875 0.15625 0  0.5 0.15625 0  0.53125 0.15625 0  0.5625 0.15625 0  0.59375 0.15625 0  0.625 0.15625 0  0.65625 0.15625 0  0.6875 0.15625 0  0.71875 0.15625 0  0.75 0.15625 0  0.78125 0.15625 0  0.8125 0.15625 0  0.84375 0.15625 0  0.875 0.15625 0  0.90625 0.15625 0  0.9375 0.15625 0  0.96875 0.15625 0  1 0.15625 0  0 0.1875 0  0.03125 0.1875 0  0.0625 0.1875 0  0.09375 0.1875 0  0.125 0.1875 0  0.15625 0.1875 0  0.1875 0.1875 0  0.21875 0.1875 0  0.25 0.1875 0  0.28125 0.1875 0  0.3125 0.1875 0  0.34375 0.1875 0  0.375 0.1875 0  0.40625 0.1875 0  0.4375 0.1875 0  0.46875 0.1875 0  0.5 0.1875 0  0.53125 0.1875 0  0.5625 0.1875 0  0.59375 0.1875 0  0.625 0.1875 0  0.65625 0.1875 0  0.6875 0.1875 0  0.71875 0.1875 0  0.75 0.1875 0  0.78125 0.1875 0  0.8125 0.1875 0  0.84375 0.1875 0  0.875 0.1875 0  0.90625 0.1875 0  0.9375 0.1875 0  0.96875 0.1875 0  1 0.1875 0  0 0.21875 0  0.03125 0.21875 0  0.0625 0.21875 0  0.09375 0.21875 0  0.125 0.21875 0  0.15625 0.21875 0  0.1875 0.21875 0  0.21875 0.21875 0  0.25 0.21875 0  0.28125 0.21875 0  0.3125 0.21875 0  0.34375 0.21875 0  0.375 0.21875 0  0.40625 0.21875 0  0.4375 0.21875 0  0.46875 0.21875 0  0.5 0.21875 0  0.53125 0.21875 0  0.5625 0.21875 0  0.59375 0.21875 0  0.625 0.21875 0  0.65625 0.21875 0  0.6875 0.21875 0  0.71875 0.21875 0  0.75 0.21875 0  0.78125 0.21875 0  0.8125 0.21875 0  0.84375 0.21875 0  0.875 0.21875 0  0.90625 0.21875 0  0.9375 0.21875 0  0.96875 0.21875 0  1 0.21875 0  0 0.25 0  0.03125 0.25 0  0.0625 0.25 0  0.09375 0.25 0  0.125 0.25 0  0.15625 0.25 0  0.1875 0.25 0  0.21875 0.25 0  0.25 0.25 0  0.28125 0.25 0  0.3125 0.25 0  0.34375 0.25 0  0.375 0.25 0  0.40625 0.25 0  0.4375 0.25 0  0.46875 0.25 0  0.5 0.25 0  0.53125 0.25 0  0.5625 0.25 0  0.59375 0.25 0  0.625 0.25 0  0.65625 0.25 0  0.6875 0.25 0  0.71875 0.25 0  0.75 0.25 0  0.78125 0.25 0  0.8125 0.25 0  0.84375 0.25 0  0.875 0.25 0  0.90625 0.25 0  0.9375 0.25 0  0.96875 0.25 0  1 0.25 0  0 0.28125 0  0.03125 0.28125 0  0.0625 0.28125 0  0.09375 0.28125 0  0.125 0.28125 0  0.15625 0.28125 0  0.1875 0.28125 0  0.21875 0.28125 0  0.25 0.28125 0  0.28125 0.28125 0  0.3125 0.28125 0  0.34375 0.28125 0  0.375 0.28125 0  0.40625 0.28125 0  0.4375 0.28125 0  0.46875 0.28125 0  0.5 0.28125 0  0.53125 0.28125 0  0.5625 0.28125 0  0.59375 0.28125 0  0.625 0.28125 0  0.65625 0.28125 0  0.6875 0.28125 0  0.71875 0.28125 0  0.75 0.28125 0  0.78125 0.28125 0  0.8125 0.28125 0  0.84375 0.28125 0  0.875 0.28125 0  0.90625 0.28125 0  0.9375 0.28125 0  0.96875 0.28125 0  1 0.28125 0  0 0.3125 0  0.03125 0.3125 0  0.0625 0.3125 0  0.09375 0.3125 0  0.125 0.3125 0  0.15625 0.3125 0  0.1875 0.3125 0  0.21875 0.3125 0  0.25 0.3125 0  0.28125 0.3125 0  0.3125 0.3125 0  0.34375 0.3125 0  0.375 0.3125 0  0.40625 0.3125 0  0.4375 0.3125 0  0.46875 0.3125 0  0.5 0.3125 0  0.53125 0.3125 0  0.5625 0.3125 0  0.59375 0.3125 0  0.625 0.3125 0  0.65625 0.3125 0  0.6875 0.3125 0  0.71875 0.3125 0  0.75 0.3125 0  0.78125 0.3125 0  0.8125 0.3125 0  0.84375 0.3125 0  0.875 0.3125 0  0.90625 0.3125 0  0.9375 0.3125 0  0.96875 0.3125 0  1 0.3125 0  0 0.34375 0  0.03125 0.34375 0  0.0625 0.34375 0  0.09375 0.34375 0  0.125 0.34375 0  0.15625 0.34375 0  0.1875 0.34375 0  0.21875 0.34375 0  0.25 0.34375 0  0.28125 0.34375 0  0.3125 0.34375 0  0.34375 0.34375 0  0.375 0.34375 0  0.40625 0.34375 0  0.4375 0.34375 0  0.46875 0.34375 0  0.5 0.34375 0  0.53125 0.34375 0  0.5625 0.34375 0  0.59375 0.34375 0  0.625 0.34375 0  0.65625 0.34375 0  0.6875 0.34375 0  0.71875 0.34375 0  0.75 0.34375 0  0.78125 0.34375 0  0.8125 0.34375 0  0.84375 0.34375 0  0.875 0.34375 0  0.90625 0.34375 0  0.9375 0.34375 0  0.96875 0.34375 0  1 0.34375 0  0 0.375 0  0.03125 0.375 0  0.0625 0.375 0  0.09375 0.375 0  0.125 0.375 0  0.15625 0.375 0  0.1875 0.375 0  0.21875 0.375 0  0.25 0.375 0  0.28125 0.375 0  0.3125 0.375 0  0.34375 0.375 0  0.375 0.375 0  0.40625 0.375 0  0.4375 0.375 0  0.46875 0.375 0  0.5 0.375 0  0.53125 0.375 0  0.5625 0.375 0  0.59375 0.375 0  0.625 0.375 0  0.65625 0.375 0  0.6875 0.375 0  0.71875 0.375 0  0.75 0.375 0  0.78125 0.375 0  0.8125 0.375 0  0.84375 0.375 0  0.875 0.375 0  0.90625 0.375 0  0.9375 0.375 0  0.96875 0.375 0  1 0.375 0  0 0.40625 0  0.03125 0.40625 0  0.0625 0.40625 0  0.09375 0.40625 0  0.125 0.40625 0  0.15625 0.40625 0  0.1875 0.40625 0  0.21875 0.40625 0  0.25 0.40625 0  0.28125 0.40625 0  0.3125 0.40625 0  0.34375 0.40625 0  0.375 0.40625 0  0.40625 0.40625 0  0.4375 0.40625 0  0.46875 0.40625 0  0.5 0.40625 0  0.53125 0.40625 0  0.5625 0.40625 0  0.59375 0.40625 0  0.625 0.40625 0  0.65625 0.40625 0  0.6875 0.40625 0  0.71875 0.40625 0  0.75 0.40625 0  0.78125 0.40625 0  0.8125 0.40625 0  0.84375 0.40625 0  0.875 0.40625 0  0.90625 0.40625 0  0.9375 0.40625 0  0.96875 0.40625 0  1 0.40625 0  0 0.4375 0  0.03125 0.4375 0  0.0625 0.4375 0  0.09375 0.4375 0  0.125 0.4375 0  0.15625 0.4375 0  0.1875 0.4375 0  0.21875 0.4375 0  0.25 0.4375 0  0.28125 0.4375 0  0.3125 0.4375 0  0.34375 0.4375 0  0.375 0.4375 0  0.40625 0.4375 0  0.4375 0.4375 0  0.46875 0.4375 0  0.5 0.4375 0  0.53125 0.4375 0  0.5625 0.4375 0  0.59375 0.4375 0  0.625 0.4375 0  0.65625 0.4375 0  0.6875 0.4375 0  0.71875 0.4375 0  0.75 0.4375 0  0.78125 0.4375 0  0.8125 0.4375 0  0.84375 0.4375 0  0.875 0.4375 0  0.90625 0.4375 0  0.9375 0.4375 0  0.96875 0.4375 0  1 0.4375 0  0 0.46875 0  0.03125 0.46875 0  0.0625 0.46875 0  0.09375 0.46875 0  0.125 0.46875 0  0.15625 0.46875 0  0.1875 0.46875 0  0.21875 0.46875 0  0.25 0.46875 0  0.28125 0.46875 0  0.3125 0.46875 0  0.34375 0.46875 0  0.375 0.46875 0  0.40625 0.46875 0  0.4375 0.46875 0  0.46875 0.46875 0  0.5 0.46875 0  0.53125 0.46875 0  0.5625 0.46875 0  0.59375 0.46875 0  0.625 0.46875 0  0.65625 0.46875 0  0.6875 0.46875 0  0.71875 0.46875 0  0.75 0.46875 0  0.78125 0.46875 0  0.8125 0.46875 0  0.84375 0.46875 0  0.875 0.46875 0  0.90625 0.46875 0  0.9375 0.46875 0  0.96875 0.46875 0  1 0.46875 0  0 0.5 0  0.03125 0.5 0  0.0625 0.5 0  0.09375 0.5 0  0.125 0.5 0  0.15625 0.5 0  0.1875 0.5 0  0.21875 0.5 0  0.25 0.5 0  0.28125 0.5 0  0.3125 0.5 0  0.34375 0.5 0  0.375 0.5 0  0.40625 0.5 0  0.4375 0.5 0  0.46875 0.5 0  0.5 0.5 0  0.53125 0.5 0  0.5625 0.5 0  0.59375 0.5 0  0.625 0.5 0  0.65625 0.5 0  0.6875 0.5 0  0.71875 0.5 0  0.75 0.5 0  0.78125 0.5 0  0.8125 0.5 0  0.84375 0.5 0  0.875 0.5 0  0.90625 0.5 0  0.9375 0.5 0  0.96875 0.5 0  1 0.5 0  0 0.53125 0  0.03125 0.53125 0  0.0625 0.53125 0  0.09375 0.53125 0  0.125 0.53125 0  0.15625 0.53125 0  0.1875 0.53125 0  0.21875 0.53125 0  0.25 0.53125 0  0.28125 0.53125 0  0.3125 0.53125 0  0.34375 0.53125 0  0.375 0.53125 0  0.40625 0.53125 0  0.4375 0.53125 0  0.46875 0.53125 0  0.5 0.53125 0  0.53125 0.53125 0  0.5625 0.53125 0  0.59375 0.53125 0  0.625 0.53125 0  0.65625 0.53125 0  0.6875 0.53125 0  0.71875 0.53125 0  0.75 0.53125 0  0.78125 0.531
[...]
<PointData  Scalars="ControlVisualisation"> 
<DataArray  type="Float64"  Name="ControlVisualisation"  format="ascii">4.1867657777032302e-01  4.1349466251422051e-01  4.0971411091530113e-01  3.9948774584279056e-01  3.8780878749300879e-01  3.7322943025755240e-01  3.5656620435660763e-01  3.4000000398169983e-01  3.2223847764266955e-01  3.0522985079105680e-01  2.9000077965812004e-01  2.7667485117239543e-01  2.6604425387329622e-01  2.5694569749509266e-01  2.5098102994649851e-01  2.4712888151307341e-01  2.4720977365741195e-01  2.4942780150762719e-01  2.5552845880405900e-01  2.6353096443993823e-01  2.7444284336896335e-01  2.8636567579141270e-01  3.0083396616329816e-01  3.1632795146536019e-01  3.3394616285896378e-01  3.5219556791166123e-01  3.6877759601513821e-01  3.8424981019837318e-01  3.9767112550189276e-01  4.0808291987977907e-01  4.1698478970175801e-01  4.2066905443362335e-01  4.2614684416699367e-01  4.1466017040076558e-01  4.1802421826850023e-01  4.0707068096954441e-01  3.9968065134529474e-01  3.8466471129074831e-01  3.6919584896821683e-01  3.5499402148081294e-01  3.3727675175398825e-01  3.1996067288607305e-01  3.0252568661542034e-01  2.8679644666566284e-01  2.7392816027116207e-01  2.6179848918937715e-01  2.5425818980501769e-01  2.4618435740637012e-01  2.4453390690937638e-01  2.4244053872807680e-01  2.4670241677163243e-01  2.5054692772371778e-01  2.6061223182819637e-01  2.6970945046702710e-01  2.8376566778838730e-01  2.9708874192129925e-01  3.1433163909843537e-01  3.3150976080916217e-01  3.4951787205262996e-01  3.6627638871292129e-01  3.8020533371392412e-01  3.9432178199685641e-01  4.0722310566758257e-01  4.1432028177149177e-01  4.2507745915957790e-01  4.2128107985944202e-01  4.1471838241543568e-01  4.1015590939024171e-01  4.0448566696693367e-01  3.9397560031785556e-01  3.8235318866201040e-01  3.6905298987396751e-01  3.4971127925764428e-01  3.3253290607537905e-01  3.1394401811058514e-01  2.9712344664222079e-01  2.8186318909330582e-01  2.6702689269105884e-01  2.5588970146119722e-01  2.4562437980559507e-01  2.4120224054298206e-01  2.3567423932541212e-01  2.3637504212578314e-01  2.3795470342253197e-01  2.4529200965435946e-01  2.5194012129591931e-01  2.6362655686627340e-01  2.7616650987020486e-01  2.9236601073070612e-01  3.0774583874719502e-01  3.2636028857504484e-01  3.4404464391294137e-01  3.6075571831963665e-01  3.7905276435086122e-01  3.9108468863245061e-01  4.0174143873502421e-01  4.1013925441399013e-01  4.1613365484189291e-01  4.1963787375413719e-01  4.1011441836700613e-01  4.0838708490997905e-01  3.9884495475531651e-01  3.9379996234473119e-01  3.7860001244624952e-01  3.5883047671160517e-01  3.4367723530107053e-01  3.2600723087127192e-01  3.0799052192802484e-01  2.9044836064049506e-01  2.7293892025276595e-01  2.5891679786896094e-01  2.4602392821706023e-01  2.3771438927495628e-01  2.3040710433429007e-01  2.2753274020629191e-01  2.2660810046987603e-01  2.2961018222638843e-01  2.3487231166403710e-01  2.4361740600922638e-01  2.5396664008175757e-01  2.6724324794171134e-01  2.8288467283371443e-01  3.0042807605307248e-01  3.1844966011382836e-01  3.3741714148628760e-01  3.5357621913845372e-01  3.6815400931017855e-01  3.8514836481639719e-01  3.9982787430999622e-01  4.0504815001911498e-01  4.1257155928995759e-01  4.1396902464958524e-01  4.0520859496617856e-01  4.0022516863876922e-01  3.9511607494203504e-01  3.8547502388491484e-01  3.6617155432949566e-01  3.5694076523695678e-01  3.3686890741301551e-01  3.1679709615070956e-01  2.9864296045516786e-01  2.7782727819636965e-01  2.6307019153302280e-01  2.4772029122698233e-01  2.3449693030026800e-01  2.2538756259833809e-01  2.2058633357880825e-01  2.1600123701228902e-01  2.1500382207893659e-01  2.1802259960012613e-01  2.2439866062858407e-01  2.3110525684760033e-01  2.4222357759279503e-01  2.5657843681722958e-01  2.7227115241088395e-01  2.8873456841126155e-01  3.0846561231994668e-01  3.2751317113719564e-01  3.4681599422083847e-01  3.6539602284288020e-01  3.7295193119342718e-01  3.8962497357793158e-01  3.9884450199082061e-01  4.0350652556157451e-01  4.0817854942879683e-01  3.9806707554906906e-01  3.9323637038318088e-01  3.9061588577457612e-01  3.7320188582305402e-01  3.6492795953128288e-01  3.4646374687233528e-01  3.2196320566381131e-01  3.0627985023791027e-01  2.8537112131936776e-01  2.6731546096914427e-01  2.5120643303568135e-01  2.3473694279271154e-01  2.2178073763325140e-01  2.1495533216398369e-01  2.0706534194956158e-01  2.0459176239954410e-01  2.0281877988942917e-01  2.0611389862433796e-01  2.0990515142826627e-01  2.1949939966247151e-01  2.2750314536393218e-01  2.4309026416815660e-01  2.5978084231874077e-01  2.7788905416224985e-01  2.9638883787622522e-01  3.1588309184906038e-01  3.3237167834594522e-01  3.5499647952444235e-01  3.7108903406181110e-01  3.7788499954364119e-01  3.9303121115822198e-01  3.9484191729693613e-01  3.9989924526549669e-01  3.8967197218150379e-01  3.8739604255717547e-01  3.7915561246508123e-01  3.6702622856376843e-01  3.5453105862175488e-01  3.3063683053752280e-01  3.1374905523100427e-01  2.9544553039152044e-01  2.7308046103537825e-01  2.5321321833183263e-01  2.3704502705405320e-01  2.2137096075329221e-01  2.0951625600636536e-01  2.0057561126781048e-01  1.9674256810559962e-01  1.9302072772989515e-01  1.9077625622136607e-01  1.9382211633462185e-01  1.9865586758979387e-01  2.0385573694282438e-01  2.1383646996455025e-01  2.2723821846624784e-01  2.4446836022657265e-01  2.6168129765864823e-01  2.8389424671194585e-01  3.0427043790398733e-01  3.2219415301356796e-01  3.3920410308235904e-01  3.5908585974122814e-01  3.6994018512876514e-01  3.8105743734494774e-01  3.8768206674686412e-01  3.9009905633757763e-01  3.8128260087307919e-01  3.7827680897309951e-01  3.7033283112557575e-01  3.5946985615111304e-01  3.4100425456929839e-01  3.2153955634030240e-01  3.0303252135980824e-01  2.7916704651563889e-01  2.5552870283510853e-01  2.3835968916517861e-01  2.2147930103305419e-01  2.0545715022290834e-01  1.9200788154360190e-01  1.8678392463905932e-01  1.8077873283728871e-01  1.7878965144389153e-01  1.7735296364232536e-01  1.7922237784722439e-01  1.8302513221308375e-01  1.8898941794835819e-01  1.9630292655928980e-01  2.0978615567936268e-01  2.2784857223990510e-01  2.4547764880581924e-01  2.6511683646742634e-01  2.8846943435153655e-01  3.0934774234105894e-01  3.2909006634654880e-01  3.4624856771289586e-01  3.6041457061917553e-01  3.7078866804313271e-01  3.7749480670491375e-01  3.7997083025779599e-01  3.7136590630168342e-01  3.6808220407423520e-01  3.6219850668290499e-01  3.4725548218234004e-01  3.2986458750417036e-01  3.1069377701225404e-01  2.8701380910887547e-01  2.6070500347183456e-01  2.4289628033418653e-01  2.2016365529745816e-01  2.0295178763852756e-01  1.8429245597552038e-01  1.7474446770239596e-01  1.6692417414647959e-01  1.6490979561403121e-01  1.6222387548333342e-01  1.6095456358205490e-01  1.6446691799906563e-01  1.6687811680827286e-01  1.7180889712967937e-01  1.7920523735673255e-01  1.8926154749561647e-01  2.0800346742008957e-01  2.2663192785895875e-01  2.5037703050498744e-01  2.7004628601457137e-01  2.9355880041418952e-01  3.1495159051230909e-01  3.3408827715367434e-01  3.4925203771434649e-01  3.6084928304469477e-01  3.6513872585106766e-01  3.6839266006894894e-01  3.6080350076352502e-01  3.5854000741730691e-01  3.5020942542411787e-01  3.3713829037376541e-01  3.1878964215197564e-01  2.9676347877528186e-01  2.6810492926736751e-01  2.4835941518980287e-01  2.2350729690936200e-01  1.9866962335156069e-01  1.8210706671887161e-01  1.6490238687346995e-01  1.5457520895173693e-01  1.4873036286247721e-01  1.4609798503252702e-01  1.4098600573272319e-01  1.4308656130739758e-01  1.4419152501938731e-01  1.4986006790393641e-01  1.5366667827042638e-01  1.6157355103508275e-01  1.7172872412284765e-01  1.8675176594160825e-01  2.0508034149970644e-01  2.2935188767031017e-01  2.5472621252195154e-01  2.7551480248550370e-01  3.0079170680596290e-01  3.1919974706587112e-01  3.3759167923857730e-01  3.4935107590562936e-01  3.5427871954521734e-01  3.5636732173706048e-01  3.5070591067677764e-01  3.4751589820018469e-01  3.4129515444678882e-01  3.2653168712237934e-01  3.0637523597240335e-01  2.8084300978879090e-01  2.5709778112317533e-01  2.3291634399058578e-01  2.0130957379931794e-01  1.8098202247669265e-01  1.6230861115638456e-01  1.4299648478685920e-01  1.3555453733239606e-01  1.2764130113040048e-01  1.2380723923517689e-01  1.2464406030942238e-01  1.2069459448105321e-01  1.2408466597064237e-01  1.2883312450941850e-01  1.3307604203825169e-01  1.3912688266502196e-01  1.5160254726796235e-01  1.6742844711695015e-01  1.8603897386797405e-01  2.0837473206510407e-01  2.3606787290548981e-01  2.6083241152414588e-01  2.8569276332855104e-01  3.0649863846853687e-01  3.2409667848614310e-01  3.3906794520958372e-01  3.4318678200945180e-01  3.4532808874354692e-01  3.4083124878594079e-01  3.3827256238876480e-01  3.3110464154517505e-01  3.1537046320662931e-01  2.9394683186189485e-01  2.7136718942659499e-01  2.4303825451397570e-01  2.0998982634029559e-01  1.8341840611806220e-01  1.6311156618721931e-01  1.3881499258311139e-01  1.2728615549163844e-01  1.1909032940110788e-01  1.1253092194823205e-01  1.0802050138191052e-01  1.0750419977737080e-01  1.0682656197902993e-01  1.0262702825597696e-01  1.0792411174412865e-01  1.1255505697904374e-01  1.1934517756128341e-01  1.2851771894552227e-01  1.4587325073233626e-01  1.6637969991169441e-01  1.9190227745751967e-01  2.1598636382779932e-01  2.4366822293954504e-01  2.7307543740509488e-01  2.9375797379138463e-01  3.1280347965062322e-01  3.2765962299784857e-01  3.3279744408805739e-01  3.3494665996763540e-01  3.3238230146306375e-01  3.2893494153202824e-01  3.2171061909227422e-01  3.0544966112131577e-01  2.8484576518737248e-01  2.5753512927862626e-01  2.2288856393738965e-01  1.9461409541626046e-01  1.7086277938985114e-01  1.4087947017659996e-01  1.2252894159476345e-01  1.1356067847653364e-01  1.0048249854365585e-01  8.9553209958969815e-02  8.4770095992362918e-02  8.2277343489622790e-02  9.3600306937534503e-02  9.0130385308714783e-02  8.6027202093440544e-02  8.9741998724218980e-02  9.8775816486146473e-02  1.0753570399818392e-01  1.2563632639574815e-01  1.4346924571153519e-01  1.7561538012787553e-01  2.0494110688603109e-01  2.2682745077993804e-01  2.5781812792234821e-01  2.8275317556554697e-01  3.0158116580460187e-01  3.1767005096895401e-01  3.2295665912507615e-01  3.2579127413489606e-01  3.2483428665276964e-01  3.2195113852553064e-01  3.1444318127130177e-01  2.9823427994902457e-01  2.7495811527544567e-01  2.4639311286025239e-01  2.1341116472441907e-01  1.8657527442544986e-01  1.5037658662077771e-01  1.1783312067758342e-01  1.0068654981479631e-01  8.6280470235632539e-02  7.0416201670085887e-02  6.3885005064884912e-02  6.6127484073249171e-02  6.3021841841742435e-02  6.7253565568748550e-02  7.2215400855982673e-02  6.7984021168183639e-02  6.9801781406148150e-02  7.3790965173974543e-02  8.2569443206657891e-02  1.0450835893956467e-01  1.2668263765418641e-01  1.5140945967392494e-01  1.9296207192569487e-01  2.2085650779737506e-01  2.4809900032999410e-01  2.7236542469729313e-01  2.9340937796854810e-01  3.0930101445400660e-01  3.1495851652881052e-01  3.1775957085355527e-01  3.1933068351974453e-01  3.1584664056507444e-01  3.0923965906438267e-01  2.9196415547763438e-01  2.7016483806963193e-01  2.3863444290980645e-01  2.0496874352236494e-01  1.7062923103852562e-01  1.2921224527800595e-01  9.4882730684997182e-02  7.0771380665454145e-02  5.1235474193820886e-02  4.3147798684833982e-02  3.7104717342981201e-02  4.0442157488711987e-02  3.9659203764895033e-02  4.4272130692688594e-02  4.8196286316907581e-02  4.7360293418008299e-02  4.8243428230912939e-02  4.7057190385149238e-02  5.2742356891813676e-02  7.4071798749724443e-02  1.1245487762438899e-01  1.3979769632964045e-01  1.7325143059587822e-01  2.1147975056982987e-01  2.4232559432769885e-01  2.6726335378269733e-01  2.8656434445078532e-01  3.0328468197765951e-01  3.0814318802538720e-01  3.1153947043847241e-01  3.1592882317054755e-01  3.1301182730710198e-01  3.0579567390023082e-01  2.8853709748630768e-01  2.6427798430308319e-01  2.3231567714429724e-01  1.9789041124265919e-01  1.6092837855000633e-01  1.1642703148811950e-01  7.4062998812705880e-02  4.1851695603749170e-02  2.3761852279940317e-02  1.2609659216258576e-02  6.0105680439595764e-03  1.1982077828531538e-03  7.6459304056000408e-04  1.8148554331884677e-03  2.1326830482989220e-02  2.5530112766791287e-02  2.1774335945860410e-02  1.9305045858105760e-02  2.4542511065195342e-02  4.5470856540600769e-02  8.7499545080455640e-02  1.3328744683508617e-01  1.6823617110193184e-01  2.0217194982947340e-01  2.3671446545853236e-01  2.6219640679724693e-01  2.8266889558332514e-01  2.9919552176832948e-01  3.0433295119112680e-01  3.0741165998835612e-01  3.1534429063602482e-01  3.1218082274999209e-01  3.0425248245812947e-01  2.8802525770331877e-01  2.6288078086261524e-01  2.3162214379503648e-01  1.9381764387279385e-01  1.5692157722596189e-01  1.0897780911652967e-01  6.3857871022846541e-02  2.3884797241592530e-02  3.0549047303411762e-03  1.4323764491978859e-03  9.8724854732721722e-04  7.7696573812794517e-04  4.7316791669235010e-04  3.2744897440261441e-04  3.3716698346664316e-04  5.2681720262450339e-04  1.1836992125379983e-03  2.2863390171469927e-03  7.3215554279484523e-03  3.1919036288499916e-02  7.0956916241735821e-02  1.1988189165497909e-01  1.6331050948580794e-01  2.0094161552683945e-01  2.3529907291877744e-01  2.6076273566948183e-01  2.8199716895651666e-01  2.9697911669987698e-01  3.0288103983920611e-01  3.0605654340641925e-01  3.1715483253347787e-01  3.1418921707909242e-01  3.0677522854383088e-01  2.8917269153771763e-01  2.6476740280294253e-01  2.3230348888945221e-01  1.9668344528866766e-01  1.5848897260843903e-01  1.1358021173123205e-01  7.0706996692819948e-02  3.4747746845514217e-02  9.7576900907944044e-03  3.6463192554676508e-03  2.6385640810371821e-03  4.0955750551533426e-03  1.8668236160469049e-02  1.9666611696833456e-02  1.8205967582892349e-03  6.3859576464346350e-04  8.3533448647626701e-04  1.4564826908918149e-03  5.9820407761605899e-03  3.3273791924830307e-02  7.7111175855920464e-02  1.2328209625362682e-01  1.6371381201229288e-01  2.0044634683727405e-01  2.3708605059665888e-01  2.6234416180378561e-01  2.8268633633025242e-01  2.9911531188754109e-01  3.0407786106735857e-01  3.0727936714596293e-01  3.2167386044399615e-01  3.1802704437759172e-01  3.1116166637482340e-01  2.9339579353615586e-01  2.7109175709188255e-01  2.3836378267409303e-01  2.0292333391492251e-01  1.6715404005515749e-01  1.2536764812334616e-01  8.7739410819128102e-02  5.6971441383746650e-02  3.2365321145218742e-02  3.0208832947942792e-02  3.4772985218112396e-02  4.1633712376912622e-02  5.1482604014642643e-02  4.9562798953989524e-02  4.6936190770221556e-02  4.2314020288826276e-02  3.6424283665583028e-02  3.1203026272858193e-02  3.6850520557257627e-02  5.4020278388572117e-02  9.0022191583258360e-02  1.3350163191819378e-01  1.7039684408730954e-01  2.0965990082807875e-01  2.4095514302196813e-01  2.6801141401855882e-01  2.8670413182798915e-01  3.0263214417442319e-01  3.0755530973919976e-01  3.1124231518895851e-01  3.2797221323118109e-01  3.2512127654747208e-01  3.1708221291171057e-01  2.9999898354030785e-01  2.7668190108223234e-01  2.4790644287559929e-01  2.1178131006133136e-01  1.8043490586535840e-01  1.4310127707129372e-01  1.1244763581686693e-01  8.9196796067782719e-02  6.8905719940523760e-02  5.9894215300653239e-02  6.1453552486035665e-02  6.9493403384311064e-02  7.8856976882713870e-02  7.4182771062628147e-02  7.1911147051114538e-02  6.6337940795927086e-02  6.5147237196785501e-02  6.3786325919876860e-02  7.3892910701465545e-02  8.6143985318348493e-02  1.2373230888226365e-01  1.4955538503226046e-01  1.8346437478359495e-01  2.1496214446172329e-01  2.5062653314992389e-01  2.7304824692391660e-01  2.9259855582341521e-01  3.0857545262863234e-01  3.1392132132909489e-01  3.1719683740040511e-01  3.3597066703970252e-01  3.3268771822042775e-01  3.2535144023601420e-01  3.0792751180734873e-01  2.8624060618874370e-01  2.5960499059667075e-01  2.2554139074914009e-01  1.9318237479117453e-01  1.6336231658896957e-01  1.3401333423717232e-01  1.1730778722491218e-01  1.0284847992020961e-01  9.5283067752539433e-02  9.4268442362246796e-02  9.6569120154994012e-02  9.8654213122415943e-02  9.7674163808858155e-02  9.4279670948292330e-02  9.0149896494892884e-02  9.2584614336375715e-02  9.6492352586268287e-02  1.0158678959900627e-01  1.2066643625785696e-01  1.4072194931992651e-01  1.6255639568338209e-01  1.9504172556634644e-01  2.3221514010868136e-01  2.5993913402644930e-01  2.8152525249155902e-01  3.0080369447686456e-01  3.1556703278583181e-01  3.2132487943318189e-01  3.2499386690694054e-01  3.4458813050108428e-01  3.4252529831369755e-01  3.3526262593188799e-01  3.1868789428378241e-01  2.9661302156355807e-01  2.7313487332933967e-01  2.4558516284148879e-01  2.1412769046408733e-01  1.8383010475676020e-01  1.6066379636639960e-01  1.4043509153554082e-01  1.2848260448013346e-01  1.2062080110519996e-01  1.1912437865762801e-01  1.1720888588702248e-01  1.1307808562157186e-01  1.1169936588524849e-01  1.1275434813608716e-01  1.1436751094328169e-01  1.1567501963511043e-01  1.1907983668336140e-01  1.2747049396398827e-01  1.4369828704223173e-01  1.6246798881827004e-01  1.8504260067399902e-01  2.2341350334186746e-01  2.4746265892994301e-01  2.7102319245887713e-01  2.9240356305419996e-01  3.1034981338580120e-01  3.2557420919194741e-01  3.3079879478854668e-01  3.3349669611955102e-01  3.5435452555818253e-01  3.5193109847363352e-01  3.4633415681596336e-01  3.3014370283679978e-01  3.0909801432777773e-01  2.8457054858892333e-01  2.6006601438644605e-01  2.3682212548811474e-01  2.0700273757485549e-01  1.8456845020825446e-01  1.6834310618916518e-01  1.5149976671466558e-01  1.4444690688474718e-01  1.3894435741906644e-01  1.3714241666272195e-01  1.3503406764439443e-01  1.3081135483298698e-01  1.3417564953195157e-01  1.3738890716522023e-01  1.3894235071430194e-01  1.4733596572140428e-01  1.5432749575358029e-01  1.7395175510191685e-01  1.8707645879886145e-01  2.1512704027944987e-01  2.4082855859028748e-01  2.5860836159763712e-01  2.8380649582352041e-01  3.0446649134957321e-01  3.2209241935110006e-01  3.3562113968850632e-01  3.4008890695731825e-01  3.4333513733749871e-01  3.6414203934541123e-01  3.6244170253715280e-01  3.5529546968204079e-01  3.4236563503490364e-01  3.2213763769784431e-01  3.0004727872396286e-01  2.7337114511618621e-01  2.5329230601433378e-01  2.2980376002278238e-01  2.0590825616027286e-01  1.8994257665597447e-01  1.7630282095648969e-01  1.6543627018783363e-01  1.6164354971288500e-01  1.5806234740433975e-01  1.5591155086123390e-01  1.5627087690683317e-01  1.5592849372308137e-01  1.5933222405017100e-01  1.6445812955882064e-01  1.6912861096975040e-01  1.8149758730724341e-01  1.9388289222240407e-01  2.1094911992139304e-01  2.3492316289841322e-01  2.5439257522403896e-01  2.7368500700261483e-01  2.9928743334243435e-01  3.1728853522328149e-01  3.3319585094369336e-01  3.4542615685744976e-01  3.5129269125308027e-01  3.5312437760356136e-01  3.7443885970686203e-01  3.7161390737195305e-01  3.6682382737640223e-01  3.5262601118630976e-01  3.3535909399118341e-01  3.1529355341183751e-01  2.9251297223640921e-01  2.6777559038010162e-01  2.5028886753745100e-01  2.2917472107266923e-01  2.1222714020427805e-01  1.9534313045982341e-01  1.8673593685529916e-01  1.7991760356332767e-01  1.7778635799390710e-01  1.7482738598436529e-01  1.7417076680395044e-01  1.7612879885989918e-01  1.7980596979900815e-01  1.8300346646512156e-01  1.9060540243582208e-01  1.9958499049128697e-01  2.1610193311359760e-01  2.3346644903933433e-01  2.5377797072073810e-01  2.6962280529794280e-01  2.9265935917138419e-01  3.1413041205998060e-01  3.2941589050710851e-01  3.4498845140192008e-01  3.5765457339608564e-01  3.6086319488424140e-01  3.6366823135000059e-01  3.8413666210906411e-01  3.8132479019878734e-01  3.7431887761757149e-01  3.646462623