<?xml version="1.0"?>
<VTKFile type="UnstructuredGrid"  version="0.1"  >
<UnstructuredGrid>
<Piece  NumberOfPoints="1089" NumberOfCells="2048">
<Points>
<DataArray  type="Float64"  NumberOfComponents="3"  format="ascii">0 0 0  0.03125 0 0  0.0625 0 0  0.09375 0 0  0.125 0 0  0.15625 0 0  0.1875 0 0  0.21875 0 0  0.25 0 0  0.28125 0 0  0.3125 0 0  0.34375 0 0  0.375 0 0  0.40625 0 0  0.4375 0 0  0.46875 0 0  0.5 0 0  0.53125 0 0  0.5625 0 0  0.59375 0 0  0.625 0 0  0.65625 0 0  0.6875 0 0  0.71875 0 0  0.75 0 0  0.78125 0 0  0.8125 0 0  0.84375 0 0  0.875 0 0  0.90625 0 0  0.9375 0 0  0.96875 0 0  1 0 0  0 0.03125 0  0.03125 0.03125 0  0.0625 0.03125 0  0.09375 0.03125 0  0.125 0.03125 0  0.15625 0.03125 0  0.1875 0.03125 0  0.21875 0.03125 0  0.25 0.03125 0  0.28125 0.03125 0  0.3125 0.03125 0  0.34375 0.03125 0  0.375 0.03125 0  0.40625 0.03125 0  0.4375 0.03125 0  0.46875 0.03125 0  0.5 0.03125 0  0.53125 0.03125 0  0.5625 0.03125 0  0.59375 0.03125 0  0.625 0.03125 0  0.65625 0.03125 0  0.6875 0.03125 0  0.71875 0.03125 0  0.75 0.03125 0  0.78125 0.03125 0  0.8125 0.03125 0  0.84375 0.03125 0  0.875 0.03125 0  0.90625 0.03125 0  0.9375 0.03125 0  0.96875 0.03125 0  1 0.03125 0  0 0.0625 0  0.03125 0.0625 0  0.0625 0.0625 0  0.09375 0.0625 0  0.125 0.0625 0  0.15625 0.0625 0  0.1875 0.0625 0  0.21875 0.0625 0  0.25 0.0625 0  0.28125 0.0625 0  0.3125 0.0625 0  0.34375 0.0625 0  0.375 0.0625 0  0.40625 0.0625 0  0.4375 0.0625 0  0.46875 0.0625 0  0.5 0.0625 0  0.53125 0.0625 0  0.5625 0.0625 0  0.59375 0.0625 0  0.625 0.0625 0  0.65625 0.0625 0  0.6875 0.0625 0  0.71875 0.0625 0  0.75 0.0625 0  0.78125 0.0625 0  0.8125 0.0625 0  0.84375 0.0625 0  0.875 0.0625 0  0.90625 0.0625 0  0.9375 0.0625 0  0.96875 0.0625 0  1 0.0625 0  0 0.09375 0  0.03125 0.09375 0  0.0625 0.09375 0  0.09375 0.09375 0  0.125 0.09375 0  0.15625 0.09375 0  0.1875 0.09375 0  0.21875 0.09375 0  0.25 0.09375 0  0.28125 0.09375 0  0.3125 0.09375 0  0.34375 0.09375 0  0.375 0.09375 0  0.40625 0.09375 0  0.4375 0.09375 0  0.46875 0.09375 0  0.5 0.09375 0  0.53125 0.09375 0  0.5625 0.09375 0  0.59375 0.09375 0  0.625 0.09375 0  0.65625 0.09375 0  0.6875 0.09375 0  0.71875 0.09375 0  0.75 0.09375 0  0.78125 0.09375 0  0.8125 0.09375 0  0.84375 0.09375 0  0.875 0.09375 0  0.90625 0.09375 0  0.9375 0.09375 0  0.96875 0.09375 0  1 0.09375 0  0 0.125 0  0.03125 0.125 0  0.0625 0.125 0  0.09375 0.125 0  0.125 0.125 0  0.15625 0.125 0  0.1875 0.125 0  0.21875 0.125 0  0.25 0.125 0  0.28125 0.125 0  0.3125 0.125 0  0.34375 0.125 0  0.375 0.125 0  0.40625 0.125 0  0.4375 0.125 0  0.46875 0.125 0  0.5 0.125 0  0.53125 0.125 0  0.5625 0.125 0  0.59375 0.125 0  0.625 0.125 0  0.65625 0.125 0  0.6875 0.125 0  0.71875 0.125 0  0.75 0.125 0  0.78125 0.125 0  0.8125 0.125 0  0.84375 0.125 0  0.875 0.125 0  0.90625 0.125 0  0.9375 0.125 0  0.96875 0.125 0  1 0.125 0  0 0.15625 0  0.03125 0.15625 0  0.0625 0.15625 0  0.09375 0.15625 0  0.125 0.15625 0  0.15625 0.15625 0  0.1875 0.15625 0  0.21875 0.15625 0  0.25 0.15625 0  0.28125 0.15625 0  0.3125 0.15625 0  0.34375 0.15625 0  0.375 0.15625 0  0.40625 0.15625 0  0.4375 0.15625 0  0.46875 0.15625 0  0.5 0.15625 0  0.53125 0.15625 0  0.5625 0.15625 0  0.59375 0.15625 0  0.625 0.15625 0  0.65625 0.15625 0  0.6875 0.15625 0  0.71875 0.15625 0  0.75 0.15625 0  0.78125 0.15625 0  0.8125 0.15625 0  0.84375 0.15625 0  0.875 0.15625 0  0.90625 0.15625 0  0.9375 0.15625 0  0.96875 0.15625 0  1 0.15625 0  0 0.1875 0  0.03125 0.1875 0  0.0625 0.1875 0  0.09375 0.1875 0  0.125 0.1875 0  0.15625 0.1875 0  0.1875 0.1875 0  0.21875 0.1875 0  0.25 0.1875 0  0.28125 0.1875 0  0.3125 0.1875 0  0.34375 0.1875 0  0.375 0.1875 0  0.40625 0.1875 0  0.4375 0.1875 0  0.46875 0.1875 0  0.5 0.1875 0  0.53125 0.1875 0  0.5625 0.1875 0  0.59375 0.1875 0  0.625 0.1875 0  0.65625 0.1875 0  0.6875 0.1875 0  0.71875 0.1875 0  0.75 0.1875 0  0.78125 0.1875 0  0.8125 0.1875 0  0.84375 0.1875 0  0.875 0.1875 0  0.90625 0.1875 0  0.9375 0.1875 0  0.96875 0.1875 0  1 0.1875 0  0 0.21875 0  0.03125 0.21875 0  0.0625 0.21875 0  0.09375 0.21875 0  0.125 0.21875 0  0.15625 0.21875 0  0.1875 0.21875 0  0.21875 0.21875 0  0.25 0.21875 0  0.28125 0.21875 0  0.3125 0.21875 0  0.34375 0.21875 0  0.375 0.21875 0  0.40625 0.21875 0  0.4375 0.21875 0  0.46875 0.21875 0  0.5 0.21875 0  0.53125 0.21875 0  0.5625 0.21875 0  0.59375 0.21875 0  0.625 0.21875 0  0.65625 0.21875 0  0.6875 0.21875 0  0.71875 0.21875 0  0.75 0.21875 0  0.78125 0.21875 0  0.8125 0.21875 0  0.84375 0.21875 0  0.875 0.21875 0  0.90625 0.21875 0  0.9375 0.21875 0  0.96875 0.21875 0  1 0.21875 0  0 0.25 0  0.03125 0.25 0  0.0625 0.25 0  0.09375 0.25 0  0.125 0.25 0  0.15625 0.25 0  0.1875 0.25 0  0.21875 0.25 0  0.25 0.25 0  0.28125 0.25 0  0.3125 0.25 0  0.34375 0.25 0  0.375 0.25 0  0.40625 0.25 0  0.4375 0.25 0  0.46875 0.25 0  0.5 0.25 0  0.53125 0.25 0  0.5625 0.25 0  0.59375 0.25 0  0.625 0.25 0  0.65625 0.25 0  0.6875 0.25 0  0.71875 0.25 0  0.75 0.25 0  0.78125 0.25 0  0.8125 0.25 0  0.84375 0.25 0  0.875 0.25 0  0.90625 0.25 0  0.9375 0.25 0  0.96875 0.25 0  1 0.25 0  0 0.28125 0  0.03125 0.28125 0  0.0625 0.28125 0  0.09375 0.28125 0  0.125 0.28125 0  0.15625 0.28125 0  0.1875 0.28125 0  0.21875 0.28125 0  0.25 0.28125 0  0.28125 0.28125 0  0.3125 0.28125 0  0.34375 0.28125 0  0.375 0.28125 0  0.40625 0.28125 0  0.4375 0.28125 0  0.46875 0.28125 0  0.5 0.28125 0  0.53125 0.28125 0  0.5625 0.28125 0  0.59375 0.28125 0  0.625 0.28125 0  0.65625 0.28125 0  0.6875 0.28125 0  0.71875 0.28125 0  0.75 0.28125 0  0.78125 0.28125 0  0.8125 0.28125 0  0.84375 0.28125 0  0.875 0.28125 0  0.90625 0.28125 0  0.9375 0.28125 0  0.96875 0.28125 0  1 0.28125 0  0 0.3125 0  0.03125 0.3125 0  0.0625 0.3125 0  0.09375 0.3125 0  0.125 0.3125 0  0.15625 0.3125 0  0.1875 0.3125 0  0.21875 0.3125 0  0.25 0.3125 0  0.28125 0.3125 0  0.3125 0.3125 0  0.34375 0.3125 0  0.375 0.3125 0  0.40625 0.3125 0  0.4375 0.3125 0  0.46875 0.3125 0  0.5 0.3125 0  0.53125 0.3125 0  0.5625 0.3125 0  0.59375 0.3125 0  0.625 0.3125 0  0.65625 0.3125 0  0.6875 0.3125 0  0.71875 0.3125 0  0.75 0.3125 0  0.78125 0.3125 0  0.8125 0.3125 0  0.84375 0.3125 0  0.875 0.3125 0  0.90625 0.3125 0  0.9375 0.3125 0  0.96875 0.3125 0  1 0.3125 0  0 0.34375 0  0.03125 0.34375 0  0.0625 0.34375 0  0.09375 0.34375 0  0.125 0.34375 0  0.15625 0.34375 0  0.1875 0.34375 0  0.21875 0.34375 0  0.25 0.34375 0  0.28125 0.34375 0  0.3125 0.34375 0  0.34375 0.34375 0  0.375 0.34375 0  0.40625 0.34375 0  0.4375 0.34375 0  0.46875 0.34375 0  0.5 0.34375 0  0.53125 0.34375 0  0.5625 0.34375 0  0.59375 0.34375 0  0.625 0.34375 0  0.65625 0.34375 0  0.6875 0.34375 0  0.71875 0.34375 0  0.75 0.34375 0  0.78125 0.34375 0  0.8125 0.34375 0  0.84375 0.34375 0  0.875 0.34375 0  0.90625 0.34375 0  0.9375 0.34375 0  0.96875 0.34375 0  1 0.34375 0  0 0.375 0  0.03125 0.375 0  0.0625 0.375 0  0.09375 0.375 0  0.125 0.375 0  0.15625 0.375 0  0.1875 0.375 0  0.21875 0.375 0  0.25 0.375 0  0.28125 0.375 0  0.3125 0.375 0  0.34375 0.375 0  0.375 0.375 0  0.40625 0.375 0  0.4375 0.375 0  0.46875 0.375 0  0.5 0.375 0  0.53125 0.375 0  0.5625 0.375 0  0.59375 0.375 0  0.625 0.375 0  0.65625 0.375 0  0.6875 0.375 0  0.71875 0.375 0  0.75 0.375 0  0.78125 0.375 0  0.8125 0.375 0  0.84375 0.375 0  0.875 0.375 0  0.90625 0.375 0  0.9375 0.375 0  0.96875 0.375 0  1 0.375 0  0 0.40625 0  0.03125 0.40625 0  0.0625 0.40625 0  0.09375 0.40625 0  0.125 0.40625 0  0.15625 0.40625 0  0.1875 0.40625 0  0.21875 0.40625 0  0.25 0.40625 0  0.28125 0.40625 0  0.3125 0.40625 0  0.34375 0.40625 0  0.375 0.40625 0  0.40625 0.40625 0  0.4375 0.40625 0  0.46875 0.40625 0  0.5 0.40625 0  0.53125 0.40625 0  0.5625 0.40625 0  0.59375 0.40625 0  0.625 0.40625 0  0.65625 0.40625 0  0.6875 0.40625 0  0.71875 0.40625 0  0.75 0.40625 0  0.78125 0.40625 0  0.8125 0.40625 0  0.84375 0.40625 0  0.875 0.40625 0  0.90625 0.40625 0  0.9375 0.40625 0  0.96875 0.40625 0  1 0.40625 0  0 0.4375 0  0.03125 0.4375 0  0.0625 0.4375 0  0.09375 0.4375 0  0.125 0.4375 0  0.15625 0.4375 0  0.1875 0.4375 0  0.21875 0.4375 0  0.25 0.4375 0  0.28125 0.4375 0  0.3125 0.4375 0  0.34375 0.4375 0  0.375 0.4375 0  0.40625 0.4375 0  0.4375 0.4375 0  0.46875 0.4375 0  0.5 0.4375 0  0.53125 0.4375 0  0.5625 0.4375 0  0.59375 0.4375 0  0.625 0.4375 0  0.65625 0.4375 0  0.6875 0.4375 0  0.71875 0.4375 0  0.75 0.4375 0  0.78125 0.4375 0  0.8125 0.4375 0  0.84375 0.4375 0  0.875 0.4375 0  0.90625 0.4375 0  0.9375 0.4375 0  0.96875 0.4375 0  1 0.4375 0  0 0.46875 0  0.03125 0.46875 0  0.0625 0.46875 0  0.09375 0.46875 0  0.125 0.46875 0  0.15625 0.46875 0  0.1875 0.46875 0  0.21875 0.46875 0  0.25 0.46875 0  0.28125 0.46875 0  0.3125 0.46875 0  0.34375 0.46875 0  0.375 0.46875 0  0.40625 0.46875 0  0.4375 0.46875 0  0.46875 0.46875 0  0.5 0.46875 0  0.53125 0.46875 0  0.5625 0.46875 0  0.59375 0.46875 0  0.625 0.46875 0  0.65625 0.46875 0  0.6875 0.46875 0  0.71875 0.46875 0  0.75 0.46875 0  0.78125 0.46875 0  0.8125 0.46875 0  0.84375 0.46875 0  0.875 0.46875 0  0.90625 0.46875 0  0.9375 0.46875 0  0.96875 0.46875 0  1 0.46875 0  0 0.5 0  0.03125 0.5 0  0.0625 0.5 0  0.09375 0.5 0  0.125 0.5 0  0.15625 0.5 0  0.1875 0.5 0  0.21875 0.5 0  0.25 0.5 0  0.28125 0.5 0  0.3125 0.5 0  0.34375 0.5 0  0.375 0.5 0  0.40625 0.5 0  0.4375 0.5 0  0.46875 0.5 0  0.5 0.5 0  0.53125 0.5 0  0.5625 0.5 0  0.59375 0.5 0  0.625 0.5 0  0.65625 0.5 0  0.6875 0.5 0  0.71875 0.5 0  0.75 0.5 0  0.78125 0.5 0  0.8125 0.5 0  0.84375 0.5 0  0.875 0.5 0  0.90625 0.5 0  0.9375 0.5 0  0.96875 0.5 0  1 0.5 0  0 0.53125 0  0.03125 0.53125 0  0.0625 0.53125 0  0.09375 0.53125 0  0.125 0.53125 0  0.15625 0.53125 0  0.1875 0.53125 0  0.21875 0.53125 0  0.25 0.53125 0  0.28125 0.53125 0  0.3125 0.53125 0  0.34375 0.53125 0  0.375 0.53125 0  0.40625 0.53125 0  0.4375 0.53125 0  0.46875 0.53125 0  0.5 0.53125 0  0.53125 0.53125 0  0.5625 0.53125 0  0.59375 0.53125 0  0.625 0.53125 0  0.65625 0.53125 0  0.6875 0.53125 0  0.71875 0.53125 0  0.75 0.53125 0  0.78125 0.531
[...]
<PointData  Scalars="ControlVisualisation"> 
<DataArray  type="Float64"  Name="ControlVisualisation"  format="ascii">5.8932247629377532e-01  5.9040879099802757e-01  5.8562578515813835e-01  5.7734420969673583e-01  5.6407848416200002e-01  5.4800087309795820e-01  5.3211797993888010e-01  5.1476631508372961e-01  4.9607091764099198e-01  4.7625579779619442e-01  4.5696693945297595e-01  4.3920873816788231e-01  4.2371189838222617e-01  4.1105734135823130e-01  4.0170904118948503e-01  3.9600522941471628e-01  3.9415033271812977e-01  3.9621048923091373e-01  4.0211213618878611e-01  4.1164339992370708e-01  4.2445864630158814e-01  4.4008674484427729e-01  4.5794000144357622e-01  4.7727913637876485e-01  4.9706845200758537e-01  5.1560769315487642e-01  5.3255686710117700e-01  5.4817561979860907e-01  5.6425664728544123e-01  5.7756273117940671e-01  5.8536890564212041e-01  5.8904522725660291e-01  5.8735713165730608e-01  5.9304763868651389e-01  5.8753943233181050e-01  5.8764410686536783e-01  5.7842887177511459e-01  5.6456356799884821e-01  5.5009028130633564e-01  5.3143860583029057e-01  5.1493952342951299e-01  4.9525105028041777e-01  4.7564640441299388e-01  4.5620299352887406e-01  4.3822751151942912e-01  4.2251137033735586e-01  4.0966945508442981e-01  4.0017683238089524e-01  3.9437946994697676e-01  3.9248688650163893e-01  3.9456713646896047e-01  4.0054516775477850e-01  4.1020448091834549e-01  4.2319222803114326e-01  4.3902665886406350e-01  4.5708569850380304e-01  4.7656172191610013e-01  4.9613555809458298e-01  5.1557046663183836e-01  5.3195971059791614e-01  5.5017040973035514e-01  5.6477529144968242e-01  5.7843710973774831e-01  5.8719987404296603e-01  5.8695701996361083e-01  5.9157504031298780e-01  5.9604083396935381e-01  5.9543703878963206e-01  5.8969617377276284e-01  5.7888935249732221e-01  5.6842315253085463e-01  5.4970314149588728e-01  5.3503268179955477e-01  5.1368588554251760e-01  4.9480607287536432e-01  4.7440648121252116e-01  4.5440492495589624e-01  4.3577790789455395e-01  4.1946946756772652e-01  4.0613213466722187e-01  3.9626459142965542e-01  3.9023007470341187e-01  3.8824926862058179e-01  3.9039432747618807e-01  3.9658688458477881e-01  4.0660005488304662e-01  4.2006448334220664e-01  4.3647554135613481e-01  4.5517367997298785e-01  4.7519929211807915e-01  4.9551653800590950e-01  5.1432645059341864e-01  5.3517672462442523e-01  5.5000574897672339e-01  5.6836889847591165e-01  5.7907355791380077e-01  5.8941039861951205e-01  5.9475036880503540e-01  5.9540170529404013e-01  6.0055196754969598e-01  5.9871867586765171e-01  5.9137675257180888e-01  5.8632286799330113e-01  5.7070223435623391e-01  5.5675681174914227e-01  5.3361661593115794e-01  5.1521540714011294e-01  4.9375778423977235e-01  4.7264278195357801e-01  4.5151944806460542e-01  4.3178967336224011e-01  4.1449378979576251e-01  4.0033553125108295e-01  3.8984871998470744e-01  3.8342372702386973e-01  3.8129868170957892e-01  3.8355219397176482e-01  3.9010086997122628e-01  4.0070173844427648e-01  4.1495953776189032e-01  4.3233552017767429e-01  4.5211993804809253e-01  4.7325726245061933e-01  4.9430966863515480e-01  5.1552112300871900e-01  5.3402196606688046e-01  5.5651600080364072e-01  5.7077133249309431e-01  5.8605947209352460e-01  5.9128445173789068e-01  5.9825378188871625e-01  6.0013473770609926e-01  6.0418113127951756e-01  6.0182464790498147e-01  5.9819812978841935e-01  5.8839194477606394e-01  5.7708921205416563e-01  5.5392762374395943e-01  5.3777061072650367e-01  5.1418175532885402e-01  4.9280144696204603e-01  4.7090159958979622e-01  4.4885457896239400e-01  4.2821980252572844e-01  4.1011872226936796e-01  3.9529226228279807e-01  3.8430395843972254e-01  3.7756720257913323e-01  3.7533486037057806e-01  3.7769068090863273e-01  3.8454632252686610e-01  3.9564425049072166e-01  4.1056632937734044e-01  4.2874420463497415e-01  4.4943075046765740e-01  4.7149029363125228e-01  4.9333331823890864e-01  5.1457597612313521e-01  5.3780579609871215e-01  5.5429537715120691e-01  5.7674211776154649e-01  5.8834560661519320e-01  5.9770227959342992e-01  6.0139070490191926e-01  6.0356122042203197e-01  6.0836825932673144e-01  6.0766128988835111e-01  6.0006392847475931e-01  5.9566643629792060e-01  5.7528960897180637e-01  5.6106427765097167e-01  5.3705604159437792e-01  5.1391151293545767e-01  4.9178180957080697e-01  4.6891241767401087e-01  4.4580111046942794e-01  4.2414712646740571e-01  4.0513554361973342e-01  3.8955091361504629e-01  3.7799229941546630e-01  3.7090107406598039e-01  3.6854819969307745e-01  3.7102372615390111e-01  3.7823309630465951e-01  3.8990072791580832e-01  4.0558050497647624e-01  4.2466850610764284e-01  4.4637377344156581e-01  4.6949574656370147e-01  4.9230955064510956e-01  5.1432761336089650e-01  5.3734912090867581e-01  5.6093763326072010e-01  5.7557009322205233e-01  5.9522656536641316e-01  5.9980945681960596e-01  6.0695600446928000e-01  6.0761078032690052e-01  6.1513272859948165e-01  6.1188968671692689e-01  6.0873355569681575e-01  5.9664871517458073e-01  5.8338171465639399e-01  5.6127241176547193e-01  5.3786759320189192e-01  5.1384170762056791e-01  4.9068352829801049e-01  4.6665999307304146e-01  4.4235199296022187e-01  4.1955192079466230e-01  3.9951645179608997e-01  3.8307931601540907e-01  3.7087958658052900e-01  3.6339002409973714e-01  3.6090181781243241e-01  3.6351203242239016e-01  3.7111914797844059e-01  3.8342738673883237e-01  3.9995925520046022e-01  4.2007082639851706e-01  4.4292192076526249e-01  4.6723983097376209e-01  4.9120466359752346e-01  5.1425868016522758e-01  5.3820939737232487e-01  5.6149566454980049e-01  5.8324559858841274e-01  5.9674877177579544e-01  6.0818373100706313e-01  6.1145275551565159e-01  6.1444032879451083e-01  6.2233193050266633e-01  6.2004843395699327e-01  6.1234805843137474e-01  6.0389031814708660e-01  5.8537601579183529e-01  5.6361998623405085e-01  5.3922665326650987e-01  5.1394041087900155e-01  4.8950398952856167e-01  4.6415478530122312e-01  4.3847369619229715e-01  4.1435644356147250e-01  3.9313979797021786e-01  3.7571505647889980e-01  3.6276946104468949e-01  3.5481417728696152e-01  3.5216545174019448e-01  3.5492919037242338e-01  3.6299541491693010e-01  3.7604362193817426e-01  3.9355816902526114e-01  4.1484714925971417e-01  4.3901296832027137e-01  4.6470287745115912e-01  4.8999306922444202e-01  5.1432444422590751e-01  5.3955105606379261e-01  5.6387597027084813e-01  5.8552252717649256e-01  6.0379157910702519e-01  6.1216912518947342e-01  6.1955530536498504e-01  6.2182920864298641e-01  6.2941772518158945e-01  6.2600865001841277e-01  6.1926411199059972e-01  6.0866607911783377e-01  5.8999358587649053e-01  5.6709634639060558e-01  5.4123412500089685e-01  5.1431937150372342e-01  4.8832133397276706e-01  4.6135553359013154e-01  4.3401925258528129e-01  4.0832301839588070e-01  3.8569355100604841e-01  3.6708856395139206e-01  3.5325092075126857e-01  3.4473594041417188e-01  3.4188871103036689e-01  3.4482557808871228e-01  3.5342740570196080e-01  3.6734601084035884e-01  3.8602255758298182e-01  4.0871024883232665e-01  4.3444564493168086e-01  4.6178672545513766e-01  4.8869539782379062e-01  5.1459427294887117e-01  5.4145625178366064e-01  5.6727410633684283e-01  5.9010519675023876e-01  6.0867774121658902e-01  6.1903020868040770e-01  6.2566412538849758e-01  6.2897024878605157e-01  6.3538445056013881e-01  6.3213180531404645e-01  6.2481014636441456e-01  6.1407006242085149e-01  5.9447405740895631e-01  5.7033713140926612e-01  5.4301394596800634e-01  5.1457625136670693e-01  4.8711796662167345e-01  4.5863956914335685e-01  4.2975538951474318e-01  4.0258462481217394e-01  3.7863787306039293e-01  3.5893408076421141e-01  3.4426714948922832e-01  3.3523284732893305e-01  3.3220264615700063e-01  3.3530236874128216e-01  3.4440435575416006e-01  3.5913492178283724e-01  3.7889554328010339e-01  4.0288901613075134e-01  4.3009127782084072e-01  4.5897752234860761e-01  4.8740251978472604e-01  5.1476974909352258e-01  5.4316141183073874e-01  5.7044900933662990e-01  5.9453897980816084e-01  6.1406126815248141e-01  6.2461703887372622e-01  6.3180488525282130e-01  6.3497969345648675e-01  6.4069814326689600e-01  6.3733599516972872e-01  6.2979878892475272e-01  6.1862796086887128e-01  5.9815699354777074e-01  5.7291205098903653e-01  5.4434265624854461e-01  5.1461150816087364e-01  4.8592158517992906e-01  4.5616299013172262e-01  4.2596241326581796e-01  3.9753488318958252e-01  3.7246403502153413e-01  3.5182176896883488e-01  3.3644648721512760e-01  3.2696957778188945e-01  3.2378585401464144e-01  3.2702938565113643e-01  3.3656459832064672e-01  3.5199480634508096e-01  3.7268622651180144e-01  3.9779754847722498e-01  4.2625232529777735e-01  4.5645414842421006e-01  4.8616435238596128e-01  5.1477192705095531e-01  5.4446157343970147e-01  5.7299986399762226e-01  5.9820407657813068e-01  6.1861351345131033e-01  6.2962244902000131e-01  6.3704552940815240e-01  6.4033470819807248e-01  6.4539712728032728e-01  6.4190047401881778e-01  6.3407754422311835e-01  6.2250478123140951e-01  6.0125439754245602e-01  5.7505024316945863e-01  5.4540142139597481e-01  5.1455142460024750e-01  4.8479700181057872e-01  4.5392839540356150e-01  4.2258262524796680e-01  3.9305895322749812e-01  3.6700522227975790e-01  3.4554035631737356e-01  3.2954289397056180e-01  3.1967678921735232e-01  3.1635838591885912e-01  3.1972934628259075e-01  3.2964665307031121e-01  3.4569228562988030e-01  3.6720016660509519e-01  3.9328921406559936e-01  4.2283657696938742e-01  4.5418336660324748e-01  4.8500974375152234e-01  5.1469207894135016e-01  5.4550523305790533e-01  5.7512654646289396e-01  6.0129506262240762e-01  6.2249210076992090e-01  6.3392503012637680e-01  6.4164913091353826e-01  6.4508267712998313e-01  6.4939942591904831e-01  6.4577229822471849e-01  6.3769949671127268e-01  6.2577958339823270e-01  6.0386533779794382e-01  5.7684321487247903e-01  5.4627285170655515e-01  5.1446699398765128e-01  4.8380102643837297e-01  4.5197954239251653e-01  4.1964882441883783e-01  3.8918034838705601e-01  3.6227726963156959e-01  3.4009962239349184e-01  3.2356156873832304e-01  3.1335632671895375e-01  3.0991976755869177e-01  3.1340048522891795e-01  3.2364871334831108e-01  3.4022714333073911e-01  3.6244076042186496e-01  3.8937328160915463e-01  4.1986144040193696e-01  4.5219299370136784e-01  4.8397945103666318e-01  5.1458544827201391e-01  5.4636023843576276e-01  5.7690738266802366e-01  6.0389965707009974e-01  6.2576965922641370e-01  6.3757394621291674e-01  6.4556511660641025e-01  6.4914014918509788e-01  6.5260436583395232e-01  6.4887386722005758e-01  6.4060142113912200e-01  6.2840422262682682e-01  6.0595577921657662e-01  5.7827459485704036e-01  5.4696078285414762e-01  5.1438320989229724e-01  4.8297993144856610e-01  4.5038586082111642e-01  4.1725497374147752e-01  3.8601731695174568e-01  3.5842108148887636e-01  3.3566017817940313e-01  3.1867850206730347e-01  3.0819395969180324e-01  3.0465903551932122e-01  3.0822827007861819e-01  3.1874619049223990e-01  3.3575917744378264e-01  3.5854791995791863e-01  3.8616688360441287e-01  4.1741968379891198e-01  4.5055117629212482e-01  4.8311824657615587e-01  5.1447521911211935e-01  5.4702854656502686e-01  5.7832420781543381e-01  6.0598219477442927e-01  6.2839651230611693e-01  6.4050483409912429e-01  6.4871453748213292e-01  6.5240505398320492e-01  6.5493438858902442e-01  6.5113090848371391e-01  6.4271553317585217e-01  6.3031901106428678e-01  6.0748056295265251e-01  5.7931721692015048e-01  5.4745877507797158e-01  5.1431569869046612e-01  4.8237200984664891e-01  4.4921002791430187e-01  4.1548923758949691e-01  3.8368315617366483e-01  3.5557341658515085e-01  3.3237924943664471e-01  3.1506698765247970e-01  3.0437333342181683e-01  3.0076351141025570e-01  3.0439666729632830e-01  3.1511300921024377e-01  3.3244652999438901e-01  3.5565956601750232e-01  3.8378467083690881e-01  4.1560094505320144e-01  4.4932206450211204e-01  4.8246567178237115e-01  5.1437785803707980e-01  5.4750429497621622e-01  5.7935025189526135e-01  6.0749772126541801e-01  6.3031296059945319e-01  6.4264927009466688e-01  6.5102213708479206e-01  6.5479855355266559e-01  6.5633609642107649e-01  6.5249128073669338e-01  6.4399331787767200e-01  6.3148137451474284e-01  6.0840768520926547e-01  5.7995218013902960e-01  5.4776303662593662e-01  5.1427679178199293e-01  4.8200624720194507e-01  4.4849900986586660e-01  4.1441745632181592e-01  3.8226244373100676e-01  3.5383649203886985e-01  3.3037458149960808e-01  3.1285707103969823e-01  3.0203248808459521e-01  2.9837412383160411e-01  3.0204408637784552e-01  3.1287994003702824e-01  3.3040799774472451e-01  3.5387924732770032e-01  3.8231277074802661e-01  4.1447275303454650e-01  4.4855432734712686e-01  4.8205220664529430e-01  5.1430679832432447e-01  5.4778452639098019e-01  5.7996724942624922e-01  6.0841464801865419e-01  6.3147658374957261e-01  6.4395825357083225e-01  6.5243483723815010e-01  6.5626604299273972e-01  6.5677853945889253e-01  6.5292465379987485e-01  6.4440653790665703e-01  6.3186652245266894e-01  6.0871862980047109e-01  5.8016876157177499e-01  5.4787184597151939e-01  5.1427437733129333e-01  4.8190047789480711e-01  4.4828144808083253e-01  4.1407969479035417e-01  3.8180666854210921e-01  3.5327263896735855e-01  3.2971813300025937e-01  3.1212840607440612e-01  3.0125613197132761e-01  2.9757746038675592e-01  3.0125561407007678e-01  3.1212737830493470e-01  3.2971661174972816e-01  3.5327064922280699e-01  3.8180424433361715e-01  4.1407688323732400e-01  4.4827833351991875e-01  4.8189721481518877e-01  5.1427107907569125e-01  5.4786841015626475e-01  5.8016516851005029e-01  6.0871492583092190e-01  6.3186278907453097e-01  6.4440310303055548e-01  6.5292141290049299e-01  6.5677540723767092e-01  6.5625205002441800e-01  6.5242147135902095e-01  6.4394617391483688e-01  6.3146635727375466e-01  6.0840726888795538e-01  5.7996331673476265e-01  5.4778444906121404e-01  5.1431077533222724e-01  4.8206017802897727e-01  4.4856632328186791e-01  4.1448871848398233e-01  3.8233243195604172e-01  3.5390214082687266e-01  3.3043349931535387e-01  3.1290728029474080e-01  3.0207237570740642e-01  2.9840239367043259e-01  3.0205974687385967e-01  3.1288236614909137e-01  3.3039705568035643e-01  3.5385542544632692e-01  3.8227727939729467e-01  4.1442782417435381e-01  4.4850480325544151e-01  4.8200771732256847e-01  5.1427419391361395e-01  5.4775610808570696e-01  5.7994108105871545e-01  6.0839291623770175e-01  6.3146369658147838e-01  6.4397437477266817e-01  6.5247143318267242e-01  6.5631583466847232e-01  6.5476785814881555e-01  6.5099256565575514e-01  6.4262203607831814e-01  6.3028907748399854e-01  6.0747947109764977e-01  5.7933889558248908e-01  5.4750068285619635e-01  5.1438236173136720e-01  4.8247806827169276e-01  4.4934252139567543e-01  4.1562950197901422e-01  3.8382086643317559e-01  3.5570252947759534e-01  3.3249506332221457e-01  3.1516562390677400e-01  3.0445163403294828e-01  3.0081894102984219e-01  3.0442728495201649e-01  3.1511758738905093e-01  3.3242479953949977e-01  3.5561247651434369e-01  3.8371459327683360e-01  4.1551227167830901e-01  4.4922436023278922e-01  4.8237797832975793e-01  5.1431369088067569e-01  5.4744837206673935e-01  5.7929875206887427e-01  6.0745497658442071e-01  6.3028772133983202e-01  6.4268145448755387e-01  6.5109485555184954e-01  6.5489741155796000e-01  6.5235848002686236e-01  6.4866954652018294e-01  6.4046315844074286e-01  6.2835958341084630e-01  6.0595351074330328e-01  5.7830565279880264e-01  5.4702138564347225e-01  5.1447998378985571e-01  4.8313455291600488e-01  4.5057931652723698e-01  4.1745978101715403e-01  3.8621829214107611e-01  3.5860937872920545e-01  3.3582894667776186e-01  3.1882211028773783e-01  3.0830783486100655e-01  3.0473951032865643e-01  3.0827253328449022e-01  3.1875245436980387e-01  3.3572703370645846e-01  3.5847872623074944e-01  3.8606407331669529e-01  4.1728966715892901e-01  4.5040800091142508e-01  4.8298992674084629e-01  5.1438156445928263e-01  5.4694692757712937e-01  5.7824902436794046e-01  6.0591984514988739e-01  6.2835995948968271e-01  6.4055293083651088e-01  6.4882239493023841e-01  6.5255148934635476e-01  6.4907888697998095e-01  6.4550584402404121e-01  6.3751886513137701e-01  6.2572058073286385e-01  6.0386118888107743e-01  5.7688197678456932e-01  5.4634953660353014e-01  5.1459012480573230e-01  4.8399896746894677e-01  4.5222774951949651e-01  4.1991162696308781e-01  3.8943807470351138e-01  3.6251853501045178e-01  3.4031566354745241e-01  3.2374521502622589e-01  3.1350177326002665e-01  3.1002236273125444e-01  3.1345665430271391e-01  3.2365616376096518e-01  3.4018531849425937e-01  3.6235134593895113e-01  3.8924062764281264e-01  4.1969376265035735e-01  4.5200846119419635e-01  4.8381438540552235e-01  5.1446539362691190e-01  5.4625558296922305e-01  5.7681091667192630e-01  6.0381973407566991e-01  6.2572326678026191e-01  6.3763764080579799e-01  6.4570654419974871e-01  6.4933183302874231e-01  6.4500823126861107e-01  6.4157701823184254e-01  6.3385786246275244e-01  6.2243202147963927e-01  6.0124765388888823e-01  5.7509475877357685e-01  5.4549103820700595e-01  5.1469627440859733e-01  4.8503164874793037e-01  4.5422346911721079e-01  4.2289511929959112e-01  3.9336520407793263e-01  3.6729165014680809e-01  3.4579658899022275e-01  3.2976048882277770e-01  3.1984893249624619e-01  3.1647961682731729e-01  3.1979545015784772e-01  3.2965489298781675e-01  3.4564193888511147e-01  3.6709314194840281e-01  3.9313059084484686e-01  4.2263610185080014e-01  4.5396285322555291e-01  4.8481293086826449e-01  5.1454950091698570e-01  5.4538081137941941e-01  5.7501171052818845e-01  6.0119999074576769e-01  6.2243757947745404e-01  6.3400364961859623e-01  6.4182187951086200e-01  6.4531631650172061e-01  6.4024883161844826e-01  6.3696228115517284e-01  6.2954476984687213e-01  6.1854382344663095e-01  5.9814876523938321e-01  5.7296229970558199e-01  5.4444400533632198e-01  5.1477525395242896e-01  4.8618777077124958e-01  4.5649821628562537e-01  4.2631731995508559e-01  3.9788232588174616e-01  3.7278854819710383e-01  3.5211162900706861e-01  3.3669220308366898e-01  3.2716351533044269e-01  3.2392190225805362e-01  3.2710282084533060e-01  3.3657233217053784e-01  3.5193598507473417e-01  3.7256294197018569e-01  3.9761548843000671e-01  4.2602254692519237e-01  4.5620163009124454e-01  4.8593923309798082e-01  5.1460889580599600e-01  5.4431884721124224e-01  5.7286791191592124e-01  5.9809484358617293e-01  6.1855128345442045e-01  6.2971444010170374e-01  6.3724626709495646e-01  6.4060586349552606e-01  6.3488435669674481e-01  6.3171244984415920e-01  6.2453076897900539e-01  6.1398370849771533e-01  5.9447712423427912e-01  5.7040652202322961e-01  5.4314075757195535e-01  5.1477190158284813e-01  4.8742657563266506e-01  4.5902409316579224e-01  4.3016066248799001e-01  4.0297994455599878e-01  3.7900554993203533e-01  3.5926067726305289e-01  3.4454181541591811e-01  3.3544692499688822e-01  3.3234932902632808e-01  3.3537656538168598e-01  3.4440294550188644e-01  3.5905737176119423e-01  3.7874464988436546e-01  4.0267160358868653e-01  4.2982016569591991e-01  4.5868097992415169e-01  4.8713650971909134e-01  5.1457269598030120e-01  5.4298727682545300e-01  5.7028829027689865e-01  5.9440557166377039e-01  6.1398569020155913e-01  6.2471729270186827e-01  6.3203289798608187e-01  6.3528267550881723e-01  6.2886772462413787e-01  6.2556501038606149e-01  6.1893733889671632e-01  6.0859444754373648e-01  5.9003856711432245e-01  5.6722792557570934e-01  5.4143306637983213e-01  5.1459509592757036e-01  4.8871924788567650e-01  4.6183424889136282e-01  4.3451715125456775e-01  4.0880437540997200e-01  3.8613668432383719e-01  3.6747662432944961e-01  3.5357026412465092e-01  3.4497587233257554e-01  3.4204126978971527e-01  3.4488547077057147e-01  3.5339226191753342e-01  3.6721692710023529e-01  3.8580472303170965e-01  4.0841352268455960e-01  4.3408651816768740e-01  4.6139828707772029e-01  4.8834005423224502e-01  5.1431484418020723e-01  5.4120527557234777e-01  5.6704415429485233e-01  5.8992063626209335e-01  6.0857622797985322e-01  6.1916473419760920e-01  6.2590313780895701e-01  6.2930874043296359e-01  6.2172250785746930e-01  6.1945101758168675e-01  6.1207267803689391e-01  6.037032145