<?xml version="1.0"?>
<VTKFile type="UnstructuredGrid"  version="0.1"  >
<UnstructuredGrid>
<Piece  NumberOfPoints="1089" NumberOfCells="2048">
<Points>
<DataArray  type="Float64"  NumberOfComponents="3"  format="ascii">0 0 0  0.03125 0 0  0.0625 0 0  0.09375 0 0  0.125 0 0  0.15625 0 0  0.1875 0 0  0.21875 0 0  0.25 0 0  0.28125 0 0  0.3125 0 0  0.34375 0 0  0.375 0 0  0.40625 0 0  0.4375 0 0  0.46875 0 0  0.5 0 0  0.53125 0 0  0.5625 0 0  0.59375 0 0  0.625 0 0  0.65625 0 0  0.6875 0 0  0.71875 0 0  0.75 0 0  0.78125 0 0  0.8125 0 0  0.84375 0 0  0.875 0 0  0.90625 0 0  0.9375 0 0  0.96875 0 0  1 0 0  0 0.03125 0  0.03125 0.03125 0  0.0625 0.03125 0  0.09375 0.03125 0  0.125 0.03125 0  0.15625 0.03125 0  0.1875 0.03125 0  0.21875 0.03125 0  0.25 0.03125 0  0.28125 0.03125 0  0.3125 0.03125 0  0.34375 0.03125 0  0.375 0.03125 0  0.40625 0.03125 0  0.4375 0.03125 0  0.46875 0.03125 0  0.5 0.03125 0  0.53125 0.03125 0  0.5625 0.03125 0  0.59375 0.03125 0  0.625 0.03125 0  0.65625 0.03125 0  0.6875 0.03125 0  0.71875 0.03125 0  0.75 0.03125 0  0.78125 0.03125 0  0.8125 0.03125 0  0.84375 0.03125 0  0.875 0.03125 0  0.90625 0.03125 0  0.9375 0.03125 0  0.96875 0.03125 0  1 0.03125 0  0 0.0625 0  0.03125 0.0625 0  0.0625 0.0625 0  0.09375 0.0625 0  0.125 0.0625 0  0.15625 0.0625 0  0.1875 0.0625 0  0.21875 0.0625 0  0.25 0.0625 0  0.28125 0.0625 0  0.3125 0.0625 0  0.34375 0.0625 0  0.375 0.0625 0  0.40625 0.0625 0  0.4375 0.0625 0  0.46875 0.0625 0  0.5 0.0625 0  0.53125 0.0625 0  0.5625 0.0625 0  0.59375 0.0625 0  0.625 0.0625 0  0.65625 0.0625 0  0.6875 0.0625 0  0.71875 0.0625 0  0.75 0.0625 0  0.78125 0.0625 0  0.8125 0.0625 0  0.84375 0.0625 0  0.875 0.0625 0  0.90625 0.0625 0  0.9375 0.0625 0  0.96875 0.0625 0  1 0.0625 0  0 0.09375 0  0.03125 0.09375 0  0.0625 0.09375 0  0.09375 0.09375 0  0.125 0.09375 0  0.15625 0.09375 0  0.1875 0.09375 0  0.21875 0.09375 0  0.25 0.09375 0  0.28125 0.09375 0  0.3125 0.09375 0  0.34375 0.09375 0  0.375 0.09375 0  0.40625 0.09375 0  0.4375 0.09375 0  0.46875 0.09375 0  0.5 0.09375 0  0.53125 0.09375 0  0.5625 0.09375 0  0.59375 0.09375 0  0.625 0.09375 0  0.65625 0.09375 0  0.6875 0.09375 0  0.71875 0.09375 0  0.75 0.09375 0  0.78125 0.09375 0  0.8125 0.09375 0  0.84375 0.09375 0  0.875 0.09375 0  0.90625 0.09375 0  0.9375 0.09375 0  0.96875 0.09375 0  1 0.09375 0  0 0.125 0  0.03125 0.125 0  0.0625 0.125 0  0.09375 0.125 0  0.125 0.125 0  0.15625 0.125 0  0.1875 0.125 0  0.21875 0.125 0  0.25 0.125 0  0.28125 0.125 0  0.3125 0.125 0  0.34375 0.125 0  0.375 0.125 0  0.40625 0.125 0  0.4375 0.125 0  0.46875 0.125 0  0.5 0.125 0  0.53125 0.125 0  0.5625 0.125 0  0.59375 0.125 0  0.625 0.125 0  0.65625 0.125 0  0.6875 0.125 0  0.71875 0.125 0  0.75 0.125 0  0.78125 0.125 0  0.8125 0.125 0  0.84375 0.125 0  0.875 0.125 0  0.90625 0.125 0  0.9375 0.125 0  0.96875 0.125 0  1 0.125 0  0 0.15625 0  0.03125 0.15625 0  0.0625 0.15625 0  0.09375 0.15625 0  0.125 0.15625 0  0.15625 0.15625 0  0.1875 0.15625 0  0.21875 0.15625 0  0.25 0.15625 0  0.28125 0.15625 0  0.3125 0.15625 0  0.34375 0.15625 0  0.375 0.15625 0  0.40625 0.15625 0  0.4375 0.15625 0  0.46875 0.15625 0  0.5 0.15625 0  0.53125 0.15625 0  0.5625 0.15625 0  0.59375 0.15625 0  0.625 0.15625 0  0.65625 0.15625 0  0.6875 0.15625 0  0.71875 0.15625 0  0.75 0.15625 0  0.78125 0.15625 0  0.8125 0.15625 0  0.84375 0.15625 0  0.875 0.15625 0  0.90625 0.15625 0  0.9375 0.15625 0  0.96875 0.15625 0  1 0.15625 0  0 0.1875 0  0.03125 0.1875 0  0.0625 0.1875 0  0.09375 0.1875 0  0.125 0.1875 0  0.15625 0.1875 0  0.1875 0.1875 0  0.21875 0.1875 0  0.25 0.1875 0  0.28125 0.1875 0  0.3125 0.1875 0  0.34375 0.1875 0  0.375 0.1875 0  0.40625 0.1875 0  0.4375 0.1875 0  0.46875 0.1875 0  0.5 0.1875 0  0.53125 0.1875 0  0.5625 0.1875 0  0.59375 0.1875 0  0.625 0.1875 0  0.65625 0.1875 0  0.6875 0.1875 0  0.71875 0.1875 0  0.75 0.1875 0  0.78125 0.1875 0  0.8125 0.1875 0  0.84375 0.1875 0  0.875 0.1875 0  0.90625 0.1875 0  0.9375 0.1875 0  0.96875 0.1875 0  1 0.1875 0  0 0.21875 0  0.03125 0.21875 0  0.0625 0.21875 0  0.09375 0.21875 0  0.125 0.21875 0  0.15625 0.21875 0  0.1875 0.21875 0  0.21875 0.21875 0  0.25 0.21875 0  0.28125 0.21875 0  0.3125 0.21875 0  0.34375 0.21875 0  0.375 0.21875 0  0.40625 0.21875 0  0.4375 0.21875 0  0.46875 0.21875 0  0.5 0.21875 0  0.53125 0.21875 0  0.5625 0.21875 0  0.59375 0.21875 0  0.625 0.21875 0  0.65625 0.21875 0  0.6875 0.21875 0  0.71875 0.21875 0  0.75 0.21875 0  0.78125 0.21875 0  0.8125 0.21875 0  0.84375 0.21875 0  0.875 0.21875 0  0.90625 0.21875 0  0.9375 0.21875 0  0.96875 0.21875 0  1 0.21875 0  0 0.25 0  0.03125 0.25 0  0.0625 0.25 0  0.09375 0.25 0  0.125 0.25 0  0.15625 0.25 0  0.1875 0.25 0  0.21875 0.25 0  0.25 0.25 0  0.28125 0.25 0  0.3125 0.25 0  0.34375 0.25 0  0.375 0.25 0  0.40625 0.25 0  0.4375 0.25 0  0.46875 0.25 0  0.5 0.25 0  0.53125 0.25 0  0.5625 0.25 0  0.59375 0.25 0  0.625 0.25 0  0.65625 0.25 0  0.6875 0.25 0  0.71875 0.25 0  0.75 0.25 0  0.78125 0.25 0  0.8125 0.25 0  0.84375 0.25 0  0.875 0.25 0  0.90625 0.25 0  0.9375 0.25 0  0.96875 0.25 0  1 0.25 0  0 0.28125 0  0.03125 0.28125 0  0.0625 0.28125 0  0.09375 0.28125 0  0.125 0.28125 0  0.15625 0.28125 0  0.1875 0.28125 0  0.21875 0.28125 0  0.25 0.28125 0  0.28125 0.28125 0  0.3125 0.28125 0  0.34375 0.28125 0  0.375 0.28125 0  0.40625 0.28125 0  0.4375 0.28125 0  0.46875 0.28125 0  0.5 0.28125 0  0.53125 0.28125 0  0.5625 0.28125 0  0.59375 0.28125 0  0.625 0.28125 0  0.65625 0.28125 0  0.6875 0.28125 0  0.71875 0.28125 0  0.75 0.28125 0  0.78125 0.28125 0  0.8125 0.28125 0  0.84375 0.28125 0  0.875 0.28125 0  0.90625 0.28125 0  0.9375 0.28125 0  0.96875 0.28125 0  1 0.28125 0  0 0.3125 0  0.03125 0.3125 0  0.0625 0.3125 0  0.09375 0.3125 0  0.125 0.3125 0  0.15625 0.3125 0  0.1875 0.3125 0  0.21875 0.3125 0  0.25 0.3125 0  0.28125 0.3125 0  0.3125 0.3125 0  0.34375 0.3125 0  0.375 0.3125 0  0.40625 0.3125 0  0.4375 0.3125 0  0.46875 0.3125 0  0.5 0.3125 0  0.53125 0.3125 0  0.5625 0.3125 0  0.59375 0.3125 0  0.625 0.3125 0  0.65625 0.3125 0  0.6875 0.3125 0  0.71875 0.3125 0  0.75 0.3125 0  0.78125 0.3125 0  0.8125 0.3125 0  0.84375 0.3125 0  0.875 0.3125 0  0.90625 0.3125 0  0.9375 0.3125 0  0.96875 0.3125 0  1 0.3125 0  0 0.34375 0  0.03125 0.34375 0  0.0625 0.34375 0  0.09375 0.34375 0  0.125 0.34375 0  0.15625 0.34375 0  0.1875 0.34375 0  0.21875 0.34375 0  0.25 0.34375 0  0.28125 0.34375 0  0.3125 0.34375 0  0.34375 0.34375 0  0.375 0.34375 0  0.40625 0.34375 0  0.4375 0.34375 0  0.46875 0.34375 0  0.5 0.34375 0  0.53125 0.34375 0  0.5625 0.34375 0  0.59375 0.34375 0  0.625 0.34375 0  0.65625 0.34375 0  0.6875 0.34375 0  0.71875 0.34375 0  0.75 0.34375 0  0.78125 0.34375 0  0.8125 0.34375 0  0.84375 0.34375 0  0.875 0.34375 0  0.90625 0.34375 0  0.9375 0.34375 0  0.96875 0.34375 0  1 0.34375 0  0 0.375 0  0.03125 0.375 0  0.0625 0.375 0  0.09375 0.375 0  0.125 0.375 0  0.15625 0.375 0  0.1875 0.375 0  0.21875 0.375 0  0.25 0.375 0  0.28125 0.375 0  0.3125 0.375 0  0.34375 0.375 0  0.375 0.375 0  0.40625 0.375 0  0.4375 0.375 0  0.46875 0.375 0  0.5 0.375 0  0.53125 0.375 0  0.5625 0.375 0  0.59375 0.375 0  0.625 0.375 0  0.65625 0.375 0  0.6875 0.375 0  0.71875 0.375 0  0.75 0.375 0  0.78125 0.375 0  0.8125 0.375 0  0.84375 0.375 0  0.875 0.375 0  0.90625 0.375 0  0.9375 0.375 0  0.96875 0.375 0  1 0.375 0  0 0.40625 0  0.03125 0.40625 0  0.0625 0.40625 0  0.09375 0.40625 0  0.125 0.40625 0  0.15625 0.40625 0  0.1875 0.40625 0  0.21875 0.40625 0  0.25 0.40625 0  0.28125 0.40625 0  0.3125 0.40625 0  0.34375 0.40625 0  0.375 0.40625 0  0.40625 0.40625 0  0.4375 0.40625 0  0.46875 0.40625 0  0.5 0.40625 0  0.53125 0.40625 0  0.5625 0.40625 0  0.59375 0.40625 0  0.625 0.40625 0  0.65625 0.40625 0  0.6875 0.40625 0  0.71875 0.40625 0  0.75 0.40625 0  0.78125 0.40625 0  0.8125 0.40625 0  0.84375 0.40625 0  0.875 0.40625 0  0.90625 0.40625 0  0.9375 0.40625 0  0.96875 0.40625 0  1 0.40625 0  0 0.4375 0  0.03125 0.4375 0  0.0625 0.4375 0  0.09375 0.4375 0  0.125 0.4375 0  0.15625 0.4375 0  0.1875 0.4375 0  0.21875 0.4375 0  0.25 0.4375 0  0.28125 0.4375 0  0.3125 0.4375 0  0.34375 0.4375 0  0.375 0.4375 0  0.40625 0.4375 0  0.4375 0.4375 0  0.46875 0.4375 0  0.5 0.4375 0  0.53125 0.4375 0  0.5625 0.4375 0  0.59375 0.4375 0  0.625 0.4375 0  0.65625 0.4375 0  0.6875 0.4375 0  0.71875 0.4375 0  0.75 0.4375 0  0.78125 0.4375 0  0.8125 0.4375 0  0.84375 0.4375 0  0.875 0.4375 0  0.90625 0.4375 0  0.9375 0.4375 0  0.96875 0.4375 0  1 0.4375 0  0 0.46875 0  0.03125 0.46875 0  0.0625 0.46875 0  0.09375 0.46875 0  0.125 0.46875 0  0.15625 0.46875 0  0.1875 0.46875 0  0.21875 0.46875 0  0.25 0.46875 0  0.28125 0.46875 0  0.3125 0.46875 0  0.34375 0.46875 0  0.375 0.46875 0  0.40625 0.46875 0  0.4375 0.46875 0  0.46875 0.46875 0  0.5 0.46875 0  0.53125 0.46875 0  0.5625 0.46875 0  0.59375 0.46875 0  0.625 0.46875 0  0.65625 0.46875 0  0.6875 0.46875 0  0.71875 0.46875 0  0.75 0.46875 0  0.78125 0.46875 0  0.8125 0.46875 0  0.84375 0.46875 0  0.875 0.46875 0  0.90625 0.46875 0  0.9375 0.46875 0  0.96875 0.46875 0  1 0.46875 0  0 0.5 0  0.03125 0.5 0  0.0625 0.5 0  0.09375 0.5 0  0.125 0.5 0  0.15625 0.5 0  0.1875 0.5 0  0.21875 0.5 0  0.25 0.5 0  0.28125 0.5 0  0.3125 0.5 0  0.34375 0.5 0  0.375 0.5 0  0.40625 0.5 0  0.4375 0.5 0  0.46875 0.5 0  0.5 0.5 0  0.53125 0.5 0  0.5625 0.5 0  0.59375 0.5 0  0.625 0.5 0  0.65625 0.5 0  0.6875 0.5 0  0.71875 0.5 0  0.75 0.5 0  0.78125 0.5 0  0.8125 0.5 0  0.84375 0.5 0  0.875 0.5 0  0.90625 0.5 0  0.9375 0.5 0  0.96875 0.5 0  1 0.5 0  0 0.53125 0  0.03125 0.53125 0  0.0625 0.53125 0  0.09375 0.53125 0  0.125 0.53125 0  0.15625 0.53125 0  0.1875 0.53125 0  0.21875 0.53125 0  0.25 0.53125 0  0.28125 0.53125 0  0.3125 0.53125 0  0.34375 0.53125 0  0.375 0.53125 0  0.40625 0.53125 0  0.4375 0.53125 0  0.46875 0.53125 0  0.5 0.53125 0  0.53125 0.53125 0  0.5625 0.53125 0  0.59375 0.53125 0  0.625 0.53125 0  0.65625 0.53125 0  0.6875 0.53125 0  0.71875 0.53125 0  0.75 0.53125 0  0.78125 0.531
[...]
<PointData  Scalars="ControlVisualisation"> 
<DataArray  type="Float64"  Name="ControlVisualisation"  format="ascii">5.5756580311121762e-01  5.5253593138185975e-01  5.3860500849830473e-01  5.3424207523522127e-01  5.1128810360845245e-01  4.9029918757944957e-01  4.7203478777564434e-01  4.5334910257791278e-01  4.3093649311828136e-01  4.0891262822286428e-01  3.9069543004913510e-01  3.7641962955628600e-01  3.6330952461026628e-01  3.5248961783821448e-01  3.4289026878797907e-01  3.3733303358065136e-01  3.3589681020140827e-01  3.3887117640752323e-01  3.4595734409616741e-01  3.5705719074278380e-01  3.6933356275852769e-01  3.8351873919811019e-01  3.9844546250204521e-01  4.1706256905008798e-01  4.3985150846593102e-01  4.6249115368682814e-01  4.8011509858925394e-01  4.9682006017424057e-01  5.1767051894930405e-01  5.3872058298310888e-01  5.4038682393033566e-01  5.5426359829844396e-01  5.5710496331202353e-01  5.5523314617840280e-01  5.4738583929777584e-01  5.4569916403780172e-01  5.2398602574157804e-01  5.2029047700806663e-01  4.9264033499375909e-01  4.7025090394661928e-01  4.5069117067766729e-01  4.3080021102634841e-01  4.0536901896091398e-01  3.8786639591145117e-01  3.7044611577537701e-01  3.5724225492556710e-01  3.4255009654672547e-01  3.3470042022878393e-01  3.2762762104041482e-01  3.2620340178575585e-01  3.2921922779870988e-01  3.3789719173010085e-01  3.4740894122332661e-01  3.6324256318862774e-01  3.7744513914710592e-01  3.9545605171646775e-01  4.1379871015914449e-01  4.3900762031225005e-01  4.5934614971750332e-01  4.7827828940616246e-01  4.9883824736799581e-01  5.2483859282195855e-01  5.2874037594580159e-01  5.4690458510510387e-01  5.4904158046555718e-01  5.5628025064522391e-01  5.4656016084503622e-01  5.5348636700578135e-01  5.4016757182848041e-01  5.3619336392765615e-01  5.0464416510273780e-01  4.8675701867569954e-01  4.7117474743687759e-01  4.4495932508017982e-01  4.1809911433093461e-01  4.0624349271752214e-01  3.8137682945093548e-01  3.6630720901824149e-01  3.5105224480469321e-01  3.4350463804994547e-01  3.3169836993104462e-01  3.2840612262751240e-01  3.2648323267122692e-01  3.2991484440290897e-01  3.3469101640456872e-01  3.4769437784352802e-01  3.5695130472962944e-01  3.7324463058682955e-01  3.8904644258628973e-01  4.1410176040942537e-01  4.2756415050145918e-01  4.5354577588452638e-01  4.7860384125805766e-01  4.9382861295677505e-01  5.1141916562826184e-01  5.3891409269100521e-01  5.4327509416064501e-01  5.5358743810594491e-01  5.4725782942991619e-01  5.5114469642812991e-01  5.4149763083195279e-01  5.4390361336195148e-01  4.9298997217787605e-01  5.0217958734716817e-01  4.8475735426846950e-01  4.5631106430720403e-01  4.3075591375998495e-01  4.1998114917864127e-01  3.9450134177603807e-01  3.7702666149379160e-01  3.5830176023679333e-01  3.4919513065425800e-01  3.3159966020830556e-01  3.2806632755675452e-01  3.2098820299136238e-01  3.2010101561315862e-01  3.2236167809585531e-01  3.3090852446586294e-01  3.3644980447685163e-01  3.5468615582778845e-01  3.6522221758106965e-01  3.8488456836169965e-01  4.0341620094797437e-01  4.2819773044982834e-01  4.4064429520085191e-01  4.6524376193271133e-01  4.9109067818548008e-01  5.0857136540835457e-01  5.0036651983222702e-01  5.4619598754860499e-01  5.4388392161715060e-01  5.5235217784296098e-01  5.3952426493263805e-01  5.5147315978192513e-01  5.2351463125532149e-01  5.1307310429096475e-01  5.1756689476718976e-01  4.7448405265407567e-01  4.5644476584471205e-01  4.3227153402259672e-01  3.9631078950908666e-01  3.8987090389883167e-01  3.5987475635887867e-01  3.4347516752492113e-01  3.2414722787854716e-01  3.1826176325814709e-01  3.0567639477445208e-01  3.0174850836418970e-01  3.0021735961995155e-01  3.0308176441165297e-01  3.0831046235148590e-01  3.2159700787549306e-01  3.3003712208438929e-01  3.4947977484514914e-01  3.6697186426970563e-01  3.9742922065187269e-01  4.0567219876274974e-01  4.3967273444665195e-01  4.6409043105410325e-01  4.8133528148784416e-01  5.2108909788864632e-01  5.1654021220856794e-01  5.2770147486302399e-01  5.5177330221784548e-01  5.4136169664802813e-01  5.3116238281165107e-01  5.3822250276319039e-01  5.1852539275607845e-01  5.0779883100988743e-01  4.8907438145147575e-01  4.6156331036832082e-01  4.4736786053741856e-01  4.0041852398701233e-01  3.9719522858334838e-01  3.7392382812379704e-01  3.4858436251070579e-01  3.2727869754391314e-01  3.2023261787249796e-01  3.0200452518419957e-01  2.9698365332994847e-01  2.9321833732339009e-01  2.9051516960393692e-01  2.9386009368148930e-01  2.9926600072119369e-01  3.0587247966806563e-01  3.2445304637374200e-01  3.3410905448403222e-01  3.5543905735081166e-01  3.8213644042678258e-01  4.0517275472834191e-01  4.1081248807228565e-01  4.5449661275635272e-01  4.6859609622288828e-01  4.9560062604909949e-01  5.1082368049216020e-01  5.2206520089472308e-01  5.3905838562288877e-01  5.3211669195544686e-01  5.2492158619271279e-01  5.3060247231992952e-01  5.1494501465005238e-01  4.9096406591575037e-01  4.8339036291654364e-01  4.5832990008489993e-01  4.2402429243377238e-01  4.0402447772419203e-01  3.7187392787894435e-01  3.6015282213058686e-01  3.2980294428954504e-01  3.1473158700517251e-01  2.9495101564749132e-01  2.8760118734204720e-01  2.7943701659965048e-01  2.7412511328759409e-01  2.7146381019593607e-01  2.7519272430287939e-01  2.8022432208043352e-01  2.9034404355750337e-01  2.9914651540520737e-01  3.1992590786780795e-01  3.3668227867371930e-01  3.6726514092980422e-01  3.8093557241773368e-01  4.1186666179352938e-01  4.3305345636953535e-01  4.6368262199805538e-01  4.8914953971666741e-01  4.9505022793549880e-01  5.1775572473977305e-01  5.3162699204603459e-01  5.2643153118429931e-01  5.1750897364688997e-01  5.2527577510024681e-01  5.0284474756590680e-01  4.7847675789539545e-01  4.7630741162276719e-01  4.2781217223096574e-01  4.2264734374613866e-01  3.6707701284140654e-01  3.5890772186832803e-01  3.4654275372637833e-01  3.1538529579330471e-01  2.9131829391268665e-01  2.8780807120372687e-01  2.7133485228343346e-01  2.6795440939085191e-01  2.6346787753867018e-01  2.6627770323528721e-01  2.6295099134942646e-01  2.6919655441708173e-01  2.7218736090182244e-01  2.9025482962194638e-01  2.9549981647209417e-01  3.2166608877444380e-01  3.5349160792293188e-01  3.6689700526972668e-01  3.7733245329378001e-01  4.2987249070811107e-01  4.3596567323656288e-01  4.8099263296739914e-01  4.8298683882254329e-01  5.0596576104683877e-01  5.2594051975468969e-01  5.1913889714938888e-01  5.0733965511632040e-01  5.1802294042891139e-01  4.8405042746486704e-01  4.7389939903379302e-01  4.4607273901419847e-01  4.2840787326265384e-01  3.9334999959595002e-01  3.5825074887365232e-01  3.4969076425334794e-01  3.2727679021525224e-01  2.8260576727770859e-01  2.7626301748817322e-01  2.5488009492960229e-01  2.4934407196575795e-01  2.4490236089356976e-01  2.4720169388480198e-01  2.3722601558366924e-01  2.4651672817342038e-01  2.4568632279684369e-01  2.5119766810520983e-01  2.5703398761602397e-01  2.7872587274491428e-01  2.8756217551914920e-01  3.3393148518940929e-01  3.5666730857585899e-01  3.6654036924640682e-01  4.0136754523388435e-01  4.3377765455923084e-01  4.5272348401673407e-01  4.7647965647709439e-01  4.8784485055539184e-01  5.1756400195077501e-01  5.0823981150438424e-01  4.9442258786840132e-01  5.0328454781765863e-01  4.8185374043357082e-01  4.5565808464174579e-01  4.4910938129136196e-01  4.1234346248037929e-01  3.8678387768209510e-01  3.4717196956830043e-01  3.2898787196220597e-01  2.8867681443167170e-01  2.6304635570994261e-01  2.3825322168206933e-01  2.3072707899120135e-01  2.2043813158442471e-01  2.2020356440374553e-01  2.1161780705059680e-01  2.1456892944303227e-01  2.1644591426954690e-01  2.1653074208253389e-01  2.2647158693062561e-01  2.3367719282464039e-01  2.4289733657330603e-01  2.6744186280250176e-01  2.9529998572523941e-01  3.3607956101484160e-01  3.5491741489963125e-01  3.9317634590447870e-01  4.1702955932777902e-01  4.5275243067818655e-01  4.5849462591769874e-01  4.8334623103541219e-01  5.0256322449931756e-01  4.9465376612641349e-01  4.8134316868955840e-01  4.9468948240228217e-01  4.6420162230729223e-01  4.4658335139385597e-01  4.2962818534114661e-01  3.9610444104145393e-01  3.6634161289001921e-01  3.2552042619439725e-01  2.8913230319226219e-01  2.6668591025738009e-01  2.2699998368783397e-01  2.1650890263551401e-01  2.0215262478370929e-01  1.9473179016076211e-01  1.9270092135563013e-01  1.7941019300061511e-01  1.9067313971017610e-01  1.7765194547717428e-01  1.9862435995702546e-01  1.8724670070833302e-01  2.1077079723183151e-01  2.1792691430920591e-01  2.3416220818466102e-01  2.7388650136232240e-01  2.9789939181063241e-01  3.3378088131303635e-01  3.7322875942090039e-01  4.0071383231876634e-01  4.3316994128434028e-01  4.4814514595097538e-01  4.6572760863296409e-01  4.9273922642201745e-01  4.8133413657968405e-01  4.7079923503326970e-01  4.8306970888618284e-01  4.5330403261633828e-01  4.3111453929491816e-01  4.1627571430212806e-01  3.7693144618689217e-01  3.5344737566823992e-01  2.9080850661742863e-01  2.6728727234309174e-01  2.3020959211818612e-01  2.0457571545281977e-01  1.8616206079333825e-01  1.7434746727036696e-01  1.7387930693246190e-01  1.5828463666887099e-01  1.6510721127122321e-01  1.5380362673226644e-01  1.5182107472235451e-01  1.5933379238932882e-01  1.6608270367285705e-01  1.7068370370555463e-01  1.8954136683434186e-01  2.0442558674073438e-01  2.3857534342815845e-01  2.7584038941879063e-01  3.0089480038564997e-01  3.5942062112494755e-01  3.8126166390788829e-01  4.1917981182209829e-01  4.3216886696088413e-01  4.5380735197435967e-01  4.8036327300745996e-01  4.7031046541924193e-01  4.5986600513412662e-01  4.7517551068665670e-01  4.4098292942127765e-01  4.2496451811684799e-01  4.0054536743159980e-01  3.7192422202345349e-01  3.2640324467398041e-01  2.7362196326870236e-01  2.3444437566376505e-01  2.0908437583561532e-01  1.7624343068643689e-01  1.5145185400598085e-01  1.4927916166631366e-01  1.3743659558349799e-01  1.3732299466315320e-01  1.4338865355017974e-01  1.1996631962042598e-01  1.3514651158383573e-01  1.2461351916780254e-01  1.3560600454654956e-01  1.4273218597911039e-01  1.5677832362205130e-01  1.7628941054160316e-01  2.1173186856129217e-01  2.4278549697821392e-01  2.8291316984856696e-01  3.3400349153153414e-01  3.7441233814306646e-01  4.0284808499031050e-01  4.2448122232742697e-01  4.4070199326414045e-01  4.7101960551082561e-01  4.5863893935569816e-01  4.5045366350845445e-01  4.6421222417200858e-01  4.3560122702001619e-01  4.1009393638589414e-01  3.9658012866975662e-01  3.5037981548444630e-01  3.1488101433938609e-01  2.4729587936524772e-01  2.1396357318512577e-01  1.8433747078588456e-01  1.3212481495902831e-01  1.1426710473934676e-01  1.0189649629775596e-01  1.0020014722068428e-01  1.0187673976985780e-01  1.0394726488087130e-01  9.6160354797494879e-02  1.1604923365185817e-01  1.0053689686987484e-01  1.0489699135674768e-01  1.0180885817084141e-01  1.2042987687976817e-01  1.4163403926551874e-01  1.8774537475549910e-01  2.1950280802574521e-01  2.5539799988456624e-01  3.2146094107160361e-01  3.5377737985728319e-01  3.9700196111360370e-01  4.0922242928850233e-01  4.3350624585524933e-01  4.5899767912567713e-01  4.4803446089716442e-01  4.4154075835090589e-01  4.5911657226468738e-01  4.2475740305637982e-01  4.0729379851086989e-01  3.8341337417250743e-01  3.4422363117731303e-01  2.9912784578037482e-01  2.3037374909298169e-01  1.9859422160529563e-01  1.4521004224999223e-01  9.6429339233229744e-02  6.7727208351084117e-02  5.7392658000622744e-02  6.1337162902544651e-02  6.5701998773452550e-02  7.7908507715954534e-02  7.2449215612113621e-02  1.3589342090527964e-01  6.2919169136249065e-02  6.9111264611124532e-02  6.1821427352447431e-02  7.5695897759573250e-02  1.0544090462135029e-01  1.5671124169270986e-01  2.0415691597710017e-01  2.3693072288566550e-01  3.0388292200856398e-01  3.4639597348475498e-01  3.8338524239104854e-01  4.0466220848062401e-01  4.2187505368348854e-01  4.5206608668254195e-01  4.3800182363175710e-01  4.3582725258600774e-01  4.5335789275456179e-01  4.2182786051726096e-01  4.0152065812205884e-01  3.8015982629078648e-01  3.3698134717742129e-01  2.9070464490232512e-01  2.2242998704120640e-01  1.7862503569671714e-01  1.2458024720938152e-01  6.5025522340377923e-02  2.0142652914420401e-02  7.3775772326917319e-03  4.8802925686222010e-03  2.5464896706097438e-02  4.4923926843517099e-02  5.7868545498452571e-02  8.9518151019492662e-02  5.4634722946236960e-02  3.6656341462412395e-02  2.7226107043201768e-02  3.4628436283711019e-02  7.1297177506579407e-02  1.3034033539730791e-01  1.8778663467298826e-01  2.2793980271092701e-01  2.9455985945311935e-01  3.3746766754196222e-01  3.7905516265806488e-01  3.9781369958220064e-01  4.1738455229721555e-01  4.4507091381132996e-01  4.3108497236416410e-01  4.3370455556001591e-01  4.5187003404186671e-01  4.2012896523082183e-01  4.0025739549281419e-01  3.7818550800985501e-01  3.3572446552988200e-01  2.8746198874404777e-01  2.1825093380840360e-01  1.7293322248543497e-01  1.1196136335802728e-01  5.2834850248370820e-02  9.7603338831841416e-03  3.0226068347776937e-03  1.4247954094731353e-03  8.3696406796111681e-04  6.8095321346803457e-04  7.4780862307165426e-04  8.7129239530821462e-04  1.0793787685560792e-03  1.6968210681457530e-03  2.9281817451987909e-03  8.1032760709757318e-03  5.3198803295213884e-02  1.1290796840671055e-01  1.7667306170931918e-01  2.2405102029031118e-01  2.8992501451587582e-01  3.3542091816929986e-01  3.7574792782086913e-01  3.9563092268992461e-01  4.1463766810492753e-01  4.4211009106722682e-01  4.2780727483422576e-01  4.3589063933559091e-01  4.5354891396107988e-01  4.2202789145307468e-01  4.0167905988310632e-01  3.8034725185979656e-01  3.3737548138346612e-01  2.9062437415336562e-01  2.2215528804480189e-01  1.7900743590487317e-01  1.2615830452148244e-01  6.8437531700443074e-02  2.4357245786613961e-02  1.1277797401427972e-02  1.0205951587564866e-02  6.1879357674068597e-03  1.6795353843014847e-03  8.2796377261958130e-04  1.0185412827711181e-03  1.0639666666699195e-03  1.2278559714041161e-03  2.0861064805018301e-03  2.2825611364276051e-03  5.8169710325509903e-02  1.2233142317308206e-01  1.7931268683784635e-01  2.2674698565192303e-01  2.9256863592199533e-01  3.3612613501802757e-01  3.7718564294635404e-01  3.9625547297056551e-01  4.1534434678828697e-01  4.4272128685116530e-01  4.2870876680985093e-01  4.4174723199643695e-01  4.5948984399262482e-01  4.2518256842245161e-01  4.0743213830524738e-01  3.8384945873384996e-01  3.4501372726653973e-01  2.9974482323418755e-01  2.2958198049412262e-01  1.9790450113242916e-01  1.4513980240525262e-01  9.7636972732478913e-02  6.7090408796904977e-02  5.2269649997217046e-02  5.5600506092391366e-02  5.8689474334661408e-02  6.1157505660009624e-02  6.0824978229144254e-02  6.3264233402023848e-02  5.9906561172797308e-02  5.6334885302776777e-02  5.0451937212722932e-02  6.1090096611507640e-02  9.1291527377602238e-02  1.4073703662381254e-01  2.0118317997926180e-01  2.3351428349336664e-01  3.0073797659659657e-01  3.4276637808415500e-01  3.7991787236912428e-01  4.0140868054983253e-01  4.1781761526091060e-01  4.4732957526819056e-01  4.3332222094326039e-01  4.5083056218287360e-01  4.6475690750578658e-01  4.3628006965781096e-01  4.1037197325352232e-01  3.9721407253561053e-01  3.5145907535730581e-01  3.1634091453727770e-01  2.4780368112710116e-01  2.1329023510517009e-01  1.8334623601093208e-01  1.3115472403154349e-01  1.1185176358879279e-01  9.6815511224829495e-02  9.2983537031197577e-02  9.7239409386648212e-02  9.9415705965873652e-02  1.0582360651275399e-01  1.0112515805740495e-01  1.0077250080214532e-01  9.6415663663632800e-02  9.8447210493273207e-02  1.1395140026808956e-01  1.2857796911915459e-01  1.8622714076072291e-01  2.1483450609534041e-01  2.5029291982145696e-01  3.1637857366294420e-01  3.4861629075527761e-01  3.9309712222980669e-01  4.0367531474985124e-01  4.2787917945334197e-01  4.5172985340110905e-01  4.4111350745379030e-01  4.6030616112931078e-01  4.7587591530451623e-01  4.4174238583679376e-01  4.2544750804808629e-01  4.0143349519220378e-01  3.7358431750218052e-01  3.2831825358517114e-01  2.7494306672765628e-01  2.3494924043120716e-01  2.0839310429708319e-01  1.7538396530215694e-01  1.4976507698870725e-01  1.4570462202013976e-01  1.3641435941083097e-01  1.3542435895013724e-01  1.4147566387601845e-01  1.3801964008936840e-01  1.4394541165233132e-01  1.3730916332552059e-01  1.3954483067205253e-01  1.5090749998377800e-01  1.5139094957081708e-01  1.7836626372685122e-01  2.0921951451125126e-01  2.3517391915736122e-01  2.7825780625344726e-01  3.2816142425650019e-01  3.7076794281042569e-01  3.9632192630142937e-01  4.1840597731150075e-01  4.3274004716930164e-01  4.6186795158839389e-01  4.4947568461311749e-01  4.7110848540537120e-01  4.8378177714976034e-01  4.5403016058681733e-01  4.3170270020567575e-01  4.1736436123748843e-01  3.7900716317643368e-01  3.5663910118807562e-01  2.9333089433298531e-01  2.6901736773810436e-01  2.3089964497862545e-01  2.0427274127516648e-01  1.8695077105405949e-01  1.7262582472654331e-01  1.7025084362394521e-01  1.6446658565202590e-01  1.5980249880560152e-01  1.5852521440167325e-01  1.5798065197548830e-01  1.6392003269067845e-01  1.6979002930105316e-01  1.7406983714565624e-01  1.8845481525544369e-01  2.0600527372760721e-01  2.3045021407682570e-01  2.7215917402121509e-01  2.9684605057746982e-01  3.5591222108717668e-01  3.7524195735426086e-01  4.1254209413888632e-01  4.2423634787766773e-01  4.4427548255875565e-01  4.6927364337371463e-01  4.5935755357047531e-01  4.8143065998261919e-01  4.9549649904976245e-01  4.6528576989542242e-01  4.4747581003015829e-01  4.3163195964217937e-01  3.9883685351462350e-01  3.7059442271607190e-01  3.3024792431418853e-01  2.9315323466877502e-01  2.6994043916190963e-01  2.2867648423049683e-01  2.1820680047304888e-01  2.0464254278060792e-01  1.9321231751026663e-01  1.9086960719110319e-01  1.8590841908243941e-01  1.8008952298610001e-01  1.8455997634548049e-01  1.8942406315241272e-01  1.9311027056310898e-01  2.0639178237819783e-01  2.2082340890159302e-01  2.3024193379582292e-01  2.7307255700886252e-01  2.9684209975141934e-01  3.3280399576791353e-01  3.6868523060913638e-01  3.9572077898385305e-01  4.2577362396377683e-01  4.3925557585899289e-01  4.5489137857158052e-01  4.8043231773628503e-01  4.6904939911293742e-01  4.9481765975862668e-01  5.0454302848594013e-01  4.8335911802412990e-01  4.5708208821342683e-01  4.5139084363994847e-01  4.1599631220278771e-01  3.9168199372318274e-01  3.5295527064814808e-01  3.3550283128790376e-01  2.9459512643892194e-01  2.6819951426380056e-01  2.4250708723917713e-01  2.3499993681578810e-01  2.2534437697772658e-01  2.2171967624133399e-01  2.1512824356439383e-01  2.2064032255271887e-01  2.1608741902955170e-01  2.2378705445555142e-01  2.2933777364511906e-01  2.3960947252982073e-01  2.4629815722946341e-01  2.7307682296876240e-01  2.9819519909812042e-01  3.3932457677142358e-01  3.5438187949490874e-01  3.9076913894168297e-01  4.1222537267349635e-01  4.4511839659039137e-01  4.4832791855352877e-01  4.7234749930211345e-01  4.8893283662772763e-01  4.8165381953036035e-01  5.0863813832467564e-01  5.2009269614774134e-01  4.8561598057790162e-01  4.7572207108658049e-01  4.4844563682889593e-01  4.3178849035185624e-01  3.9884677026318233e-01  3.6476581383788764e-01  3.5782196732782945e-01  3.3664518233180568e-01  2.9153087665822752e-01  2.8590637149532333e-01  2.6448671836962256e-01  2.5942631732227261e-01  2.5604239175019416e-01  2.5766703565736748e-01  2.4938146300154873e-01  2.5919181278560138e-01  2.5888057298635392e-01  2.6350615326786642e-01  2.6782640572967575e-01  2.9062623717586727e-01  2.9467575106486449e-01  3.4039859860779703e-01  3.5950832254445342e-01  3.6624890015877459e-01  3.9733293870728514e-01  4.2812020716270988e-01  4.4139071226155940e-01  4.6685476057149911e-01  4.7411421471772214e-01  5.0410930565170498e-01  4.9448524636246999e-01  5.1935442656195963e-01  5.2792771944344563e-01  5.0540144936959508e-01  4.808180904