<?xml version="1.0"?>
<VTKFile type="UnstructuredGrid"  version="0.1"  >
<UnstructuredGrid>
<Piece  NumberOfPoints="1089" NumberOfCells="2048">
<Points>
<DataArray  type="Float64"  NumberOfComponents="3"  format="ascii">0 0 0  0.03125 0 0  0.0625 0 0  0.09375 0 0  0.125 0 0  0.15625 0 0  0.1875 0 0  0.21875 0 0  0.25 0 0  0.28125 0 0  0.3125 0 0  0.34375 0 0  0.375 0 0  0.40625 0 0  0.4375 0 0  0.46875 0 0  0.5 0 0  0.53125 0 0  0.5625 0 0  0.59375 0 0  0.625 0 0  0.65625 0 0  0.6875 0 0  0.71875 0 0  0.75 0 0  0.78125 0 0  0.8125 0 0  0.84375 0 0  0.875 0 0  0.90625 0 0  0.9375 0 0  0.96875 0 0  1 0 0  0 0.03125 0  0.03125 0.03125 0  0.0625 0.03125 0  0.09375 0.03125 0  0.125 0.03125 0  0.15625 0.03125 0  0.1875 0.03125 0  0.21875 0.03125 0  0.25 0.03125 0  0.28125 0.03125 0  0.3125 0.03125 0  0.34375 0.03125 0  0.375 0.03125 0  0.40625 0.03125 0  0.4375 0.03125 0  0.46875 0.03125 0  0.5 0.03125 0  0.53125 0.03125 0  0.5625 0.03125 0  0.59375 0.03125 0  0.625 0.03125 0  0.65625 0.03125 0  0.6875 0.03125 0  0.71875 0.03125 0  0.75 0.03125 0  0.78125 0.03125 0  0.8125 0.03125 0  0.84375 0.03125 0  0.875 0.03125 0  0.90625 0.03125 0  0.9375 0.03125 0  0.96875 0.03125 0  1 0.03125 0  0 0.0625 0  0.03125 0.0625 0  0.0625 0.0625 0  0.09375 0.0625 0  0.125 0.0625 0  0.15625 0.0625 0  0.1875 0.0625 0  0.21875 0.0625 0  0.25 0.0625 0  0.28125 0.0625 0  0.3125 0.0625 0  0.34375 0.0625 0  0.375 0.0625 0  0.40625 0.0625 0  0.4375 0.0625 0  0.46875 0.0625 0  0.5 0.0625 0  0.53125 0.0625 0  0.5625 0.0625 0  0.59375 0.0625 0  0.625 0.0625 0  0.65625 0.0625 0  0.6875 0.0625 0  0.71875 0.0625 0  0.75 0.0625 0  0.78125 0.0625 0  0.8125 0.0625 0  0.84375 0.0625 0  0.875 0.0625 0  0.90625 0.0625 0  0.9375 0.0625 0  0.96875 0.0625 0  1 0.0625 0  0 0.09375 0  0.03125 0.09375 0  0.0625 0.09375 0  0.09375 0.09375 0  0.125 0.09375 0  0.15625 0.09375 0  0.1875 0.09375 0  0.21875 0.09375 0  0.25 0.09375 0  0.28125 0.09375 0  0.3125 0.09375 0  0.34375 0.09375 0  0.375 0.09375 0  0.40625 0.09375 0  0.4375 0.09375 0  0.46875 0.09375 0  0.5 0.09375 0  0.53125 0.09375 0  0.5625 0.09375 0  0.59375 0.09375 0  0.625 0.09375 0  0.65625 0.09375 0  0.6875 0.09375 0  0.71875 0.09375 0  0.75 0.09375 0  0.78125 0.09375 0  0.8125 0.09375 0  0.84375 0.09375 0  0.875 0.09375 0  0.90625 0.09375 0  0.9375 0.09375 0  0.96875 0.09375 0  1 0.09375 0  0 0.125 0  0.03125 0.125 0  0.0625 0.125 0  0.09375 0.125 0  0.125 0.125 0  0.15625 0.125 0  0.1875 0.125 0  0.21875 0.125 0  0.25 0.125 0  0.28125 0.125 0  0.3125 0.125 0  0.34375 0.125 0  0.375 0.125 0  0.40625 0.125 0  0.4375 0.125 0  0.46875 0.125 0  0.5 0.125 0  0.53125 0.125 0  0.5625 0.125 0  0.59375 0.125 0  0.625 0.125 0  0.65625 0.125 0  0.6875 0.125 0  0.71875 0.125 0  0.75 0.125 0  0.78125 0.125 0  0.8125 0.125 0  0.84375 0.125 0  0.875 0.125 0  0.90625 0.125 0  0.9375 0.125 0  0.96875 0.125 0  1 0.125 0  0 0.15625 0  0.03125 0.15625 0  0.0625 0.15625 0  0.09375 0.15625 0  0.125 0.15625 0  0.15625 0.15625 0  0.1875 0.15625 0  0.21875 0.15625 0  0.25 0.15625 0  0.28125 0.15625 0  0.3125 0.15625 0  0.34375 0.15625 0  0.375 0.15625 0  0.40625 0.15625 0  0.4375 0.15625 0  0.46875 0.15625 0  0.5 0.15625 0  0.53125 0.15625 0  0.5625 0.15625 0  0.59375 0.15625 0  0.625 0.15625 0  0.65625 0.15625 0  0.6875 0.15625 0  0.71875 0.15625 0  0.75 0.15625 0  0.78125 0.15625 0  0.8125 0.15625 0  0.84375 0.15625 0  0.875 0.15625 0  0.90625 0.15625 0  0.9375 0.15625 0  0.96875 0.15625 0  1 0.15625 0  0 0.1875 0  0.03125 0.1875 0  0.0625 0.1875 0  0.09375 0.1875 0  0.125 0.1875 0  0.15625 0.1875 0  0.1875 0.1875 0  0.21875 0.1875 0  0.25 0.1875 0  0.28125 0.1875 0  0.3125 0.1875 0  0.34375 0.1875 0  0.375 0.1875 0  0.40625 0.1875 0  0.4375 0.1875 0  0.46875 0.1875 0  0.5 0.1875 0  0.53125 0.1875 0  0.5625 0.1875 0  0.59375 0.1875 0  0.625 0.1875 0  0.65625 0.1875 0  0.6875 0.1875 0  0.71875 0.1875 0  0.75 0.1875 0  0.78125 0.1875 0  0.8125 0.1875 0  0.84375 0.1875 0  0.875 0.1875 0  0.90625 0.1875 0  0.9375 0.1875 0  0.96875 0.1875 0  1 0.1875 0  0 0.21875 0  0.03125 0.21875 0  0.0625 0.21875 0  0.09375 0.21875 0  0.125 0.21875 0  0.15625 0.21875 0  0.1875 0.21875 0  0.21875 0.21875 0  0.25 0.21875 0  0.28125 0.21875 0  0.3125 0.21875 0  0.34375 0.21875 0  0.375 0.21875 0  0.40625 0.21875 0  0.4375 0.21875 0  0.46875 0.21875 0  0.5 0.21875 0  0.53125 0.21875 0  0.5625 0.21875 0  0.59375 0.21875 0  0.625 0.21875 0  0.65625 0.21875 0  0.6875 0.21875 0  0.71875 0.21875 0  0.75 0.21875 0  0.78125 0.21875 0  0.8125 0.21875 0  0.84375 0.21875 0  0.875 0.21875 0  0.90625 0.21875 0  0.9375 0.21875 0  0.96875 0.21875 0  1 0.21875 0  0 0.25 0  0.03125 0.25 0  0.0625 0.25 0  0.09375 0.25 0  0.125 0.25 0  0.15625 0.25 0  0.1875 0.25 0  0.21875 0.25 0  0.25 0.25 0  0.28125 0.25 0  0.3125 0.25 0  0.34375 0.25 0  0.375 0.25 0  0.40625 0.25 0  0.4375 0.25 0  0.46875 0.25 0  0.5 0.25 0  0.53125 0.25 0  0.5625 0.25 0  0.59375 0.25 0  0.625 0.25 0  0.65625 0.25 0  0.6875 0.25 0  0.71875 0.25 0  0.75 0.25 0  0.78125 0.25 0  0.8125 0.25 0  0.84375 0.25 0  0.875 0.25 0  0.90625 0.25 0  0.9375 0.25 0  0.96875 0.25 0  1 0.25 0  0 0.28125 0  0.03125 0.28125 0  0.0625 0.28125 0  0.09375 0.28125 0  0.125 0.28125 0  0.15625 0.28125 0  0.1875 0.28125 0  0.21875 0.28125 0  0.25 0.28125 0  0.28125 0.28125 0  0.3125 0.28125 0  0.34375 0.28125 0  0.375 0.28125 0  0.40625 0.28125 0  0.4375 0.28125 0  0.46875 0.28125 0  0.5 0.28125 0  0.53125 0.28125 0  0.5625 0.28125 0  0.59375 0.28125 0  0.625 0.28125 0  0.65625 0.28125 0  0.6875 0.28125 0  0.71875 0.28125 0  0.75 0.28125 0  0.78125 0.28125 0  0.8125 0.28125 0  0.84375 0.28125 0  0.875 0.28125 0  0.90625 0.28125 0  0.9375 0.28125 0  0.96875 0.28125 0  1 0.28125 0  0 0.3125 0  0.03125 0.3125 0  0.0625 0.3125 0  0.09375 0.3125 0  0.125 0.3125 0  0.15625 0.3125 0  0.1875 0.3125 0  0.21875 0.3125 0  0.25 0.3125 0  0.28125 0.3125 0  0.3125 0.3125 0  0.34375 0.3125 0  0.375 0.3125 0  0.40625 0.3125 0  0.4375 0.3125 0  0.46875 0.3125 0  0.5 0.3125 0  0.53125 0.3125 0  0.5625 0.3125 0  0.59375 0.3125 0  0.625 0.3125 0  0.65625 0.3125 0  0.6875 0.3125 0  0.71875 0.3125 0  0.75 0.3125 0  0.78125 0.3125 0  0.8125 0.3125 0  0.84375 0.3125 0  0.875 0.3125 0  0.90625 0.3125 0  0.9375 0.3125 0  0.96875 0.3125 0  1 0.3125 0  0 0.34375 0  0.03125 0.34375 0  0.0625 0.34375 0  0.09375 0.34375 0  0.125 0.34375 0  0.15625 0.34375 0  0.1875 0.34375 0  0.21875 0.34375 0  0.25 0.34375 0  0.28125 0.34375 0  0.3125 0.34375 0  0.34375 0.34375 0  0.375 0.34375 0  0.40625 0.34375 0  0.4375 0.34375 0  0.46875 0.34375 0  0.5 0.34375 0  0.53125 0.34375 0  0.5625 0.34375 0  0.59375 0.34375 0  0.625 0.34375 0  0.65625 0.34375 0  0.6875 0.34375 0  0.71875 0.34375 0  0.75 0.34375 0  0.78125 0.34375 0  0.8125 0.34375 0  0.84375 0.34375 0  0.875 0.34375 0  0.90625 0.34375 0  0.9375 0.34375 0  0.96875 0.34375 0  1 0.34375 0  0 0.375 0  0.03125 0.375 0  0.0625 0.375 0  0.09375 0.375 0  0.125 0.375 0  0.15625 0.375 0  0.1875 0.375 0  0.21875 0.375 0  0.25 0.375 0  0.28125 0.375 0  0.3125 0.375 0  0.34375 0.375 0  0.375 0.375 0  0.40625 0.375 0  0.4375 0.375 0  0.46875 0.375 0  0.5 0.375 0  0.53125 0.375 0  0.5625 0.375 0  0.59375 0.375 0  0.625 0.375 0  0.65625 0.375 0  0.6875 0.375 0  0.71875 0.375 0  0.75 0.375 0  0.78125 0.375 0  0.8125 0.375 0  0.84375 0.375 0  0.875 0.375 0  0.90625 0.375 0  0.9375 0.375 0  0.96875 0.375 0  1 0.375 0  0 0.40625 0  0.03125 0.40625 0  0.0625 0.40625 0  0.09375 0.40625 0  0.125 0.40625 0  0.15625 0.40625 0  0.1875 0.40625 0  0.21875 0.40625 0  0.25 0.40625 0  0.28125 0.40625 0  0.3125 0.40625 0  0.34375 0.40625 0  0.375 0.40625 0  0.40625 0.40625 0  0.4375 0.40625 0  0.46875 0.40625 0  0.5 0.40625 0  0.53125 0.40625 0  0.5625 0.40625 0  0.59375 0.40625 0  0.625 0.40625 0  0.65625 0.40625 0  0.6875 0.40625 0  0.71875 0.40625 0  0.75 0.40625 0  0.78125 0.40625 0  0.8125 0.40625 0  0.84375 0.40625 0  0.875 0.40625 0  0.90625 0.40625 0  0.9375 0.40625 0  0.96875 0.40625 0  1 0.40625 0  0 0.4375 0  0.03125 0.4375 0  0.0625 0.4375 0  0.09375 0.4375 0  0.125 0.4375 0  0.15625 0.4375 0  0.1875 0.4375 0  0.21875 0.4375 0  0.25 0.4375 0  0.28125 0.4375 0  0.3125 0.4375 0  0.34375 0.4375 0  0.375 0.4375 0  0.40625 0.4375 0  0.4375 0.4375 0  0.46875 0.4375 0  0.5 0.4375 0  0.53125 0.4375 0  0.5625 0.4375 0  0.59375 0.4375 0  0.625 0.4375 0  0.65625 0.4375 0  0.6875 0.4375 0  0.71875 0.4375 0  0.75 0.4375 0  0.78125 0.4375 0  0.8125 0.4375 0  0.84375 0.4375 0  0.875 0.4375 0  0.90625 0.4375 0  0.9375 0.4375 0  0.96875 0.4375 0  1 0.4375 0  0 0.46875 0  0.03125 0.46875 0  0.0625 0.46875 0  0.09375 0.46875 0  0.125 0.46875 0  0.15625 0.46875 0  0.1875 0.46875 0  0.21875 0.46875 0  0.25 0.46875 0  0.28125 0.46875 0  0.3125 0.46875 0  0.34375 0.46875 0  0.375 0.46875 0  0.40625 0.46875 0  0.4375 0.46875 0  0.46875 0.46875 0  0.5 0.46875 0  0.53125 0.46875 0  0.5625 0.46875 0  0.59375 0.46875 0  0.625 0.46875 0  0.65625 0.46875 0  0.6875 0.46875 0  0.71875 0.46875 0  0.75 0.46875 0  0.78125 0.46875 0  0.8125 0.46875 0  0.84375 0.46875 0  0.875 0.46875 0  0.90625 0.46875 0  0.9375 0.46875 0  0.96875 0.46875 0  1 0.46875 0  0 0.5 0  0.03125 0.5 0  0.0625 0.5 0  0.09375 0.5 0  0.125 0.5 0  0.15625 0.5 0  0.1875 0.5 0  0.21875 0.5 0  0.25 0.5 0  0.28125 0.5 0  0.3125 0.5 0  0.34375 0.5 0  0.375 0.5 0  0.40625 0.5 0  0.4375 0.5 0  0.46875 0.5 0  0.5 0.5 0  0.53125 0.5 0  0.5625 0.5 0  0.59375 0.5 0  0.625 0.5 0  0.65625 0.5 0  0.6875 0.5 0  0.71875 0.5 0  0.75 0.5 0  0.78125 0.5 0  0.8125 0.5 0  0.84375 0.5 0  0.875 0.5 0  0.90625 0.5 0  0.9375 0.5 0  0.96875 0.5 0  1 0.5 0  0 0.53125 0  0.03125 0.53125 0  0.0625 0.53125 0  0.09375 0.53125 0  0.125 0.53125 0  0.15625 0.53125 0  0.1875 0.53125 0  0.21875 0.53125 0  0.25 0.53125 0  0.28125 0.53125 0  0.3125 0.53125 0  0.34375 0.53125 0  0.375 0.53125 0  0.40625 0.53125 0  0.4375 0.53125 0  0.46875 0.53125 0  0.5 0.53125 0  0.53125 0.53125 0  0.5625 0.53125 0  0.59375 0.53125 0  0.625 0.53125 0  0.65625 0.53125 0  0.6875 0.53125 0  0.71875 0.53125 0  0.75 0.53125 0  0.78125 0.531
[...]
<PointData  Scalars="ControlVisualisation"> 
<DataArray  type="Float64"  Name="ControlVisualisation"  format="ascii">5.2806956368670588e-01  5.2265070633236232e-01  5.1450968724593293e-01  5.0137800698444557e-01  4.8486894339086273e-01  4.6739259730131227e-01  4.4608987532084493e-01  4.2305620530732224e-01  4.0138948627306670e-01  3.8273633345619451e-01  3.6357434756955109e-01  3.4582317168102095e-01  3.3016789610191266e-01  3.1873149111610738e-01  3.1112231301157572e-01  3.0689316303882808e-01  3.0625457241564341e-01  3.0895493100628602e-01  3.1524294419677551e-01  3.2477729101286040e-01  3.3823934904706776e-01  3.5584376200029910e-01  3.7552107994197614e-01  3.9614968013536328e-01  4.1554662043588719e-01  4.3745988217505494e-01  4.6081688946958177e-01  4.8159255258530909e-01  4.9791067795641331e-01  5.1360556911932398e-01  5.2639297628739412e-01  5.3442379420937003e-01  5.3488933730793475e-01  5.2467576617021394e-01  5.2685555812620433e-01  5.1377901737282461e-01  5.0264734134770883e-01  4.8738052398770426e-01  4.6697345420592462e-01  4.4668309239847259e-01  4.2086169335483448e-01  4.0050363767638797e-01  3.7802174729681309e-01  3.5952650990725193e-01  3.4030709626563288e-01  3.2572072885968306e-01  3.1423160950064327e-01  3.0595074451355470e-01  3.0225540907812248e-01  3.0129879306950824e-01  3.0444649982551231e-01  3.1004999612496209e-01  3.2062935779662105e-01  3.3394611793253176e-01  3.5086460802407360e-01  3.7175134315890768e-01  3.9182571948592038e-01  4.1502600620860702e-01  4.3596929226621611e-01  4.6177036839308816e-01  4.8202167461609002e-01  5.0057098922796417e-01  5.1582372108657382e-01  5.2675311087721333e-01  5.3728080763275865e-01  5.3602555936100094e-01  5.2268687908472222e-01  5.1986396871299401e-01  5.1255659242858931e-01  4.9901047221161099e-01  4.7827214655910477e-01  4.6359336381595279e-01  4.3679954536640708e-01  4.1998576030064633e-01  3.9445242105689360e-01  3.7361305716127213e-01  3.5283657725038464e-01  3.3657677352690796e-01  3.2150768689024523e-01  3.0816777953256241e-01  3.0192613531290757e-01  2.9607986386244617e-01  2.9674567195213158e-01  2.9831948649039647e-01  3.0663111939792098e-01  3.1484208698452110e-01  3.3082546310983790e-01  3.4741611845281073e-01  3.6636140614861296e-01  3.8829696202266234e-01  4.1046589583264220e-01  4.3583844960199208e-01  4.5388256876192606e-01  4.7966359009272447e-01  4.9434417267356345e-01  5.1341652445156194e-01  5.2762837353367475e-01  5.3219688244362628e-01  5.3317316302222562e-01  5.1886644230702628e-01  5.1884414949443203e-01  5.0958663749047051e-01  4.9339287432303758e-01  4.8172172898376359e-01  4.5772375499885370e-01  4.3969557102270851e-01  4.1068568062067823e-01  3.9086273156576040e-01  3.6477406245249194e-01  3.4692000733236084e-01  3.2834565865838361e-01  3.1280987622076317e-01  3.0382431531474791e-01  2.9208385267969561e-01  2.9130990824256819e-01  2.8771927418737159e-01  2.9328175986192673e-01  2.9637839631038149e-01  3.0988236484152576e-01  3.2114756766823238e-01  3.3936505072468803e-01  3.5858582418880869e-01  3.7915852628019864e-01  4.0556335623266865e-01  4.2642670458231857e-01  4.5411077311639736e-01  4.7303623316747501e-01  4.9512854603797990e-01  5.0727968466654005e-01  5.2274083768060109e-01  5.3006548734398273e-01  5.2842939525456767e-01  5.1505171448623199e-01  5.1556664984457856e-01  5.0141496866717206e-01  4.9401795233609413e-01  4.6851114981705777e-01  4.5451563941244433e-01  4.2197352118912568e-01  4.0764938469387718e-01  3.8125791279142007e-01  3.5820036266591521e-01  3.3661340303333825e-01  3.1948827227416654e-01  3.0836309787312927e-01  2.9158478370687912e-01  2.8777251687669686e-01  2.8072517924295237e-01  2.8173096460729652e-01  2.8282800594104734e-01  2.9096561559171213e-01  2.9816574878090435e-01  3.1519860435001762e-01  3.2988563635091445e-01  3.4900604692383169e-01  3.7060784714643863e-01  3.9656424443762844e-01  4.2229708619448630e-01  4.3803485678504334e-01  4.6853508493830215e-01  4.8273480922196738e-01  5.0628116346219354e-01  5.1510716310428173e-01  5.2583786358606011e-01  5.2377777392630487e-01  5.1141850694678004e-01  5.1015932710698553e-01  5.0253830599510951e-01  4.8500050104932124e-01  4.6860199253358265e-01  4.4333065290606161e-01  4.2567528143594985e-01  3.9741178746424727e-01  3.7424198766664646e-01  3.4385056005561110e-01  3.2414898099220940e-01  3.0901247628545203e-01  2.9178302122281935e-01  2.8255427342397604e-01  2.7225589612981954e-01  2.6888533940661730e-01  2.6742314333838962e-01  2.7053881632539439e-01  2.7595271810836902e-01  2.8700195081457275e-01  2.9976265275323699e-01  3.1661797479105963e-01  3.3660287934114058e-01  3.5614751457236338e-01  3.8705117242743575e-01  4.1230713170618805e-01  4.3901988383635426e-01  4.5821818963827676e-01  4.8088907140680603e-01  4.9738908458336983e-01  5.1422340201530825e-01  5.2049257167237206e-01  5.1976391285314438e-01  5.0499137578018216e-01  5.0698135467691763e-01  4.9226593828299614e-01  4.8272610731979859e-01  4.5286965905824933e-01  4.4432549250728043e-01  4.0618959497528268e-01  3.8624314008900973e-01  3.5890084133262140e-01  3.3049095261301098e-01  3.1138512852859879e-01  2.9443878182841521e-01  2.8294723488438289e-01  2.6794700547983674e-01  2.6170707357133111e-01  2.5719985294274411e-01  2.5703223972047434e-01  2.5900056659626991e-01  2.6524440213407674e-01  2.7293178951059555e-01  2.8981551379300607e-01  3.0245708829211859e-01  3.2140320234573322e-01  3.4425062286261943e-01  3.7144531857339935e-01  4.0010144908780665e-01  4.2061728053148084e-01  4.5651649109096687e-01  4.6632494403581742e-01  4.9377327693808537e-01  5.0410693045666066e-01  5.1555516056556827e-01  5.1231457677840020e-01  4.9830965947014133e-01  4.9621868825364723e-01  4.8972985825038606e-01  4.6799441530650465e-01  4.5317392167347015e-01  4.2932940304015305e-01  3.9606192453477229e-01  3.7588344785998629e-01  3.4640897940260651e-01  3.1154596190997758e-01  2.9405134939443950e-01  2.7797800354162938e-01  2.5986215992746753e-01  2.5087019709708830e-01  2.4180543795093726e-01  2.3850112938002405e-01  2.3597489290106513e-01  2.3957665226206357e-01  2.4433788100422671e-01  2.5468023557791880e-01  2.6660872409764569e-01  2.8616315464740555e-01  3.0209657756191516e-01  3.2370253107790220e-01  3.5917990033809044e-01  3.8850347685198316e-01  4.0996071401530332e-01  4.4159579810457833e-01  4.6323245955621889e-01  4.7902320777596541e-01  4.9998313723002447e-01  5.0432238060296675e-01  5.0377650156407172e-01  4.9084524971996368e-01  4.9123703080597064e-01  4.8115472672902299e-01  4.6588034067100748e-01  4.4425374719073452e-01  4.1916504192765858e-01  3.8242781252329489e-01  3.6180827004027549e-01  3.2072524988332601e-01  2.9321430966058404e-01  2.7754039728410995e-01  2.5561512884149867e-01  2.4780007317203684e-01  2.3452757616370332e-01  2.2535680706828312e-01  2.2338485521960952e-01  2.2242339784357146e-01  2.2325960560867225e-01  2.2632118909180740e-01  2.3577324465457256e-01  2.5060986301550814e-01  2.6392241072173755e-01  2.8501357244920961e-01  3.0314533504473440e-01  3.3348435121109538e-01  3.7325319684902936e-01  3.9582063978595050e-01  4.3175024102580223e-01  4.5384197270832777e-01  4.7411666882355330e-01  4.9040433285274343e-01  4.9788105836294233e-01  4.9508610711706269e-01  4.8559953480239743e-01  4.8367157554367424e-01  4.7406679007187791e-01  4.5410902071864645e-01  4.3034476774619979e-01  3.9972664565168065e-01  3.6642121167333519e-01  3.3718437446963706e-01  3.0195501513975204e-01  2.7893124775904171e-01  2.5414908788418128e-01  2.4037224749803215e-01  2.2566427688336849e-01  2.1415684254819173e-01  2.0848486234821095e-01  2.1088349662030198e-01  2.0559182726350758e-01  2.1134375114467704e-01  2.1135598345648898e-01  2.1633110183469215e-01  2.2728368960493095e-01  2.4587605086561307e-01  2.6265370938996740e-01  2.8689169350502108e-01  3.1392463579149404e-01  3.4883081364181495e-01  3.7753969414165933e-01  4.1221996472084094e-01  4.4030411044005890e-01  4.6194028275517701e-01  4.8138312518915738e-01  4.8860802411898518e-01  4.8826722107909032e-01  4.7975212991498650e-01  4.7734195643207089e-01  4.6665606391885683e-01  4.4517483300462934e-01  4.1728243906489382e-01  3.8893263277144058e-01  3.4924856251886960e-01  3.1892903837749792e-01  2.8670851635221306e-01  2.5195934783822221e-01  2.3002434363412930e-01  2.0877781654374780e-01  2.0072416798112552e-01  1.9009595000484142e-01  1.8767416490081407e-01  1.9069633042312781e-01  1.8487917331986981e-01  1.9269927756627903e-01  1.8869748456605198e-01  1.9653463006756466e-01  2.0343064331748648e-01  2.1448644106052908e-01  2.3948776935826013e-01  2.6126757978691645e-01  2.9686079998286052e-01  3.3052656552394111e-01  3.6026289911321113e-01  3.9822835591845646e-01  4.2591377524286517e-01  4.5190881429493379e-01  4.7265600153940401e-01  4.8007330589204084e-01  4.8017922563484500e-01  4.7342599728454049e-01  4.7061957946990240e-01  4.5955038157079392e-01  4.3492681109744791e-01  4.0676559458474065e-01  3.7497393445532307e-01  3.3037983914334329e-01  3.0344545165295755e-01  2.5863831923324260e-01  2.2564343958500113e-01  1.9533687094965080e-01  1.8074910538049815e-01  1.7010405156635741e-01  1.6055850793178905e-01  1.6525484006198121e-01  1.6512930751202248e-01  1.6431690285236825e-01  1.6796836469023219e-01  1.6557374383284740e-01  1.6587946544588655e-01  1.7664303651633789e-01  1.8550253075118167e-01  2.0579033259402771e-01  2.3703977885468192e-01  2.7046935727912141e-01  3.1367223991872867e-01  3.4128750673391539e-01  3.8426843757177737e-01  4.1256016973041010e-01  4.3973313706888817e-01  4.6372926050352764e-01  4.7132554614139405e-01  4.7128515436999591e-01  4.6762907530901510e-01  4.6369967825536179e-01  4.5301133470508526e-01  4.2442614005839230e-01  3.9784515831777229e-01  3.5914826063230132e-01  3.1924331138525541e-01  2.7877750891771574e-01  2.3558100151899719e-01  1.9152531867408573e-01  1.6002614476967619e-01  1.4240947357943107e-01  1.3206455586970633e-01  1.3296708610264618e-01  1.4159782951476355e-01  1.4007036054465860e-01  1.3884660747236438e-01  1.4048493885567950e-01  1.3955219128880877e-01  1.3546953569261966e-01  1.4001559515819240e-01  1.5254135284907588e-01  1.7182568514928057e-01  2.0503850563295217e-01  2.4823850516727297e-01  2.9011219861501414e-01  3.2786546969428293e-01  3.6732804139912434e-01  4.0258236322814944e-01  4.2681179184454826e-01  4.5493107332050764e-01  4.6218632802006931e-01  4.6297904306384308e-01  4.6283857466327216e-01  4.6006032368180383e-01  4.4441292556286210e-01  4.1970401988480543e-01  3.8532690053118729e-01  3.5125917255323219e-01  2.9984406661231405e-01  2.6054247853098961e-01  2.0651909832810453e-01  1.5320673784491970e-01  1.1541339812713472e-01  9.5428016061245638e-02  9.3755567840729664e-02  9.9954294590397619e-02  1.0975766364490731e-01  1.0827309965088680e-01  1.1554052271070325e-01  1.0672775511017249e-01  1.0583352106846533e-01  1.0227291241561151e-01  1.0205137017245700e-01  1.0936871241229262e-01  1.3236059488512408e-01  1.7113691760709454e-01  2.2081828054826994e-01  2.7140120110681681e-01  3.0845027611927278e-01  3.5686193589080079e-01  3.8813114221564637e-01  4.1996817207009707e-01  4.4422256870702542e-01  4.5601946006315247e-01  4.5572495071163516e-01  4.6076486493000141e-01  4.5459468505669465e-01  4.4212328811651991e-01  4.1020136405397067e-01  3.7952147899394467e-01  3.3915927199147111e-01  2.8801295060262705e-01  2.4207376789135659e-01  1.7782212704262174e-01  1.1447219960648390e-01  6.7452664469627471e-02  4.2506853382358302e-02  4.3079465694795802e-02  5.3424587894788281e-02  6.6997391080783925e-02  6.9688533676807829e-02  7.8077839767463658e-02  6.7181980639979294e-02  7.5877597614217779e-02  5.9006217708882494e-02  6.1309262200902589e-02  6.4705341290852453e-02  9.0687120022136927e-02  1.3428210339714006e-01  1.9449395592969487e-01  2.5231179589961450e-01  2.9480963867467425e-01  3.4320507743854239e-01  3.8013638082795775e-01  4.0822162377354737e-01  4.3951468587841203e-01  4.4831046613349235e-01  4.5107799576721391e-01  4.5931767814073610e-01  4.5425403762263139e-01  4.3749635428764760e-01  4.0846798290817188e-01  3.7430895385156038e-01  3.3485561439717076e-01  2.7840627098191284e-01  2.3067388806839714e-01  1.5663911346887324e-01  8.5486710660275231e-02  2.6652378859894556e-02  3.5480402671967098e-03  2.6154536290207142e-08  2.8734264898213763e-03  2.0628221027738640e-02  2.8853618685806950e-02  3.6375375560919521e-02  3.4164587831865968e-02  3.1303430741205951e-02  2.2638683407085670e-02  1.8273684560666061e-02  1.9787719925443044e-02  5.0078992784875515e-02  1.0559901159105581e-01  1.7054852047402250e-01  2.3975522659555462e-01  2.8340454207640581e-01  3.3642350878354499e-01  3.7245701902117306e-01  4.0434617586191557e-01  4.3251481711633466e-01  4.4548481894716052e-01  4.4722208752185594e-01  4.5955803774708348e-01  4.5282784329862813e-01  4.3882024145014209e-01  4.0633758030212219e-01  3.7451828755177002e-01  3.3127358005871527e-01  2.7928177867360893e-01  2.2489972479964221e-01  1.5060899281340742e-01  7.7346372482030204e-02  1.8809017813055873e-02  1.6261769295087668e-03  6.2815617810353533e-04  2.3598362542785333e-04  1.0933194555247914e-04  4.5497536157492564e-05  8.6032515498767363e-05  9.8490765667699287e-05  1.1968133907889426e-04  1.7009903116585847e-04  3.0788274115249765e-04  8.6693492593323956e-04  2.1071218154032650e-02  8.8560624129241802e-02  1.5975337181337146e-01  2.2993705154024022e-01  2.8207102283961716e-01  3.3100385661785336e-01  3.7072803747730115e-01  3.9989395611250317e-01  4.3171421910089536e-01  4.4178808443341805e-01  4.4524589769161738e-01  4.6041317566383438e-01  4.5534349566468724e-01  4.3850585125860453e-01  4.0934169619674077e-01  3.7519297744949048e-01  3.3569708578459356e-01  2.7967247331802420e-01  2.3284684751771206e-01  1.6059828365389800e-01  9.0776451404646963e-02  3.4054195428383678e-02  9.0187565284992333e-03  4.4722709572126915e-03  3.3654230853251508e-03  6.8816061203596070e-04  1.5367110650918512e-04  1.5077913513526840e-04  1.1478937698623641e-04  1.1751554793775908e-04  1.4027315642108702e-04  2.0530740842214512e-04  5.1885296459094378e-04  2.2352720138093699e-02  9.2870524204463317e-02  1.6413283552393659e-01  2.3434511504637390e-01  2.8051868452304718e-01  3.3403303071131552e-01  3.6966034899243255e-01  4.0132053342715729e-01  4.2944723557686948e-01  4.4234459563595563e-01  4.4424531237485132e-01  4.6283739114287104e-01  4.5672025049529802e-01  4.4405727158886493e-01  4.1203380263989503e-01  3.8113264650323303e-01  3.4077426954551443e-01  2.8990341959751920e-01  2.4526093124891279e-01  1.8295968006988991e-01  1.2046771492449936e-01  7.2153991692218936e-02  4.3744256821918105e-02  3.7587342567841166e-02  3.7079798120413662e-02  3.8325008812249449e-02  4.1008076910220653e-02  4.2073928852126984e-02  4.2210436474536810e-02  4.0369780750839093e-02  3.7392169540932871e-02  3.4592185170321851e-02  3.5187891782629439e-02  6.8110890057137080e-02  1.1878198543835503e-01  1.8187011919476948e-01  2.4605246230330477e-01  2.9026332664802673e-01  3.3788592384635141e-01  3.7481651687113049e-01  4.0249349697922121e-01  4.3342326375972118e-01  4.4217268568558410e-01  4.4530596728826688e-01  4.6572590205012832e-01  4.6308670261117352e-01  4.4730254188191221e-01  4.2251485666014793e-01  3.8802719315859663e-01  3.5374965979857498e-01  3.0237255928965290e-01  2.6355873772954957e-01  2.1042556972406642e-01  1.5732914995291253e-01  1.1647410460707246e-01  9.1814949501272364e-02  8.2842303965270786e-02  8.4049114448646309e-02  8.6694483252249682e-02  8.8390591889817280e-02  9.0001046252084743e-02  9.0541486036735508e-02  9.0511449867442292e-02  8.7753304043883359e-02  8.6766823144402136e-02  9.3520445744623260e-02  1.1760873222698071e-01  1.5621619972999509e-01  2.1223262685544417e-01  2.6499488088549322e-01  3.0198160562749082e-01  3.5093710793395444e-01  3.8026451055968152e-01  4.1192656288988383e-01  4.3537400420116396e-01  4.4745312389880348e-01  4.4730688623158910e-01  4.7123607374227960e-01  4.6748053731124051e-01  4.5671789068633850e-01  4.2802413328728928e-01  4.0141838115119732e-01  3.6244275656916569e-01  3.2240798015349703e-01  2.8231139767914826e-01  2.3853563903466740e-01  1.9365915941286246e-01  1.5977787041763833e-01  1.3917726983911211e-01  1.2572552899590239e-01  1.2154748479930179e-01  1.2598223921722515e-01  1.2658769779462051e-01  1.2685347959425053e-01  1.2882075695740031e-01  1.3027465771165864e-01  1.2676340079589010e-01  1.3058469036538031e-01  1.4426222944069564e-01  1.6315961013282188e-01  1.9755657121302342e-01  2.4250829467970170e-01  2.8378935441141195e-01  3.2282353003973119e-01  3.5825895737865715e-01  3.9338574509659824e-01  4.1684071764269492e-01  4.4417402648750376e-01  4.5109084322445647e-01  4.5226221254524707e-01  4.7760814222847847e-01  4.7498178450135120e-01  4.6405751840206994e-01  4.3941150858216671e-01  4.1127689830266312e-01  3.7916144606792102e-01  3.3401220151510408e-01  3.0728677917043956e-01  2.6243336945462209e-01  2.2797680555868949e-01  1.9586285584013971e-01  1.7927640320623184e-01  1.6769638849248300e-01  1.5922987767346347e-01  1.5994486454227635e-01  1.6146785281440579e-01  1.6289082754003961e-01  1.6409900304065020e-01  1.6427469857822746e-01  1.6566166251987419e-01  1.7432740553281792e-01  1.8597963255902961e-01  2.0246406303134432e-01  2.3424879394759857e-01  2.6692077178598189e-01  3.0958095581088346e-01  3.3321535545694236e-01  3.7521822720876047e-01  4.0295874974399593e-01  4.2753156918627422e-01  4.5087293201320300e-01  4.5819320857600415e-01  4.5844753456181342e-01  4.8429482272868790e-01  4.8198608377820501e-01  4.7141413609113658e-01  4.5036272004542532e-01  4.2267087737113734e-01  3.9445646017621527e-01  3.5407987341946434e-01  3.2349790048817578e-01  2.9141130997402176e-01  2.5627273976435377e-01  2.3345723432131424e-01  2.1082245422622956e-01  2.0227583778127822e-01  1.9343502766991544e-01  1.9102478848359700e-01  1.9173724235297609e-01  1.9242659803048365e-01  1.9422533606354717e-01  1.9554866071132568e-01  1.9958859787245314e-01  2.0901602657460441e-01  2.1792981233343509e-01  2.4082087083210055e-01  2.6207877519847211e-01  2.9645867155538902e-01  3.2438859296101979e-01  3.5370223675800916e-01  3.9006707220019876e-01  4.1328615714837108e-01  4.3841761522637962e-01  4.5838425614076261e-01  4.6539316633305661e-01  4.6516332422510381e-01  4.9002069655874875e-01  4.8845051871703060e-01  4.7900271332205263e-01  4.5963445922206497e-01  4.3638214960375321e-01  4.0624775093915277e-01  3.7296315561537247e-01  3.4359412246285098e-01  3.0782171716179491e-01  2.8526842318034162e-01  2.6072860324334252e-01  2.4703491990614157e-01  2.3073080985087441e-01  2.2155438751543158e-01  2.1880927512325060e-01  2.1899871086427916e-01  2.1590826226423662e-01  2.2125771662096466e-01  2.2291653336051839e-01  2.2696186137540425e-01  2.3648604658470318e-01  2.5387718325636605e-01  2.6633288218922635e-01  2.9153260460563557e-01  3.1090587680744985e-01  3.4436324749945352e-01  3.7215900038894850e-01  4.0030464308568381e-01  4.2747313908842371e-01  4.4813749551653781e-01  4.6632720207596107e-01  4.7188583888379043e-01  4.7150327045667811e-01  4.9475218036459334e-01  4.9586515837652151e-01  4.8644603775136136e-01  4.7184198220316759e-01  4.5133602818483115e-01  4.2681978616676758e-01  3.8999581751079093e-01  3.7029728857284211e-01  3.2888587446794015e-01  3.0032876536368536e-01  2.8611893462630578e-01  2.6496632281368560e-01  2.5762296155532555e-01  2.4225905973738118e-01  2.3710258407214199e-01  2.3502761123383192e-01  2.3610150612876890e-01  2.3703205956108064e-01  2.4044536115542858e-01  2.4673374646822127e-01  2.6287038735528351e-01  2.7010481665844599e-01  2.9191821860707690e-01  3.0509022032434002e-01  3.3138855334305317e-01  3.7135535890117982e-01  3.8784898587035643e-01  4.2124047051091235e-01  4.4283497849466424e-01  4.6035548756459155e-01  4.7355340032267568e-01  4.7994826313324596e-01  4.7717762906857114e-01  5.0205849592982377e-01  5.0072418680080621e-01  4.9469250979650303e-01  4.739841519