<?xml version="1.0"?>
<VTKFile type="UnstructuredGrid"  version="0.1"  >
<UnstructuredGrid>
<Piece  NumberOfPoints="1089" NumberOfCells="2048">
<Points>
<DataArray  type="Float64"  NumberOfComponents="3"  format="ascii">0 0 0  0.03125 0 0  0.0625 0 0  0.09375 0 0  0.125 0 0  0.15625 0 0  0.1875 0 0  0.21875 0 0  0.25 0 0  0.28125 0 0  0.3125 0 0  0.34375 0 0  0.375 0 0  0.40625 0 0  0.4375 0 0  0.46875 0 0  0.5 0 0  0.53125 0 0  0.5625 0 0  0.59375 0 0  0.625 0 0  0.65625 0 0  0.6875 0 0  0.71875 0 0  0.75 0 0  0.78125 0 0  0.8125 0 0  0.84375 0 0  0.875 0 0  0.90625 0 0  0.9375 0 0  0.96875 0 0  1 0 0  0 0.03125 0  0.03125 0.03125 0  0.0625 0.03125 0  0.09375 0.03125 0  0.125 0.03125 0  0.15625 0.03125 0  0.1875 0.03125 0  0.21875 0.03125 0  0.25 0.03125 0  0.28125 0.03125 0  0.3125 0.03125 0  0.34375 0.03125 0  0.375 0.03125 0  0.40625 0.03125 0  0.4375 0.03125 0  0.46875 0.03125 0  0.5 0.03125 0  0.53125 0.03125 0  0.5625 0.03125 0  0.59375 0.03125 0  0.625 0.03125 0  0.65625 0.03125 0  0.6875 0.03125 0  0.71875 0.03125 0  0.75 0.03125 0  0.78125 0.03125 0  0.8125 0.03125 0  0.84375 0.03125 0  0.875 0.03125 0  0.90625 0.03125 0  0.9375 0.03125 0  0.96875 0.03125 0  1 0.03125 0  0 0.0625 0  0.03125 0.0625 0  0.0625 0.0625 0  0.09375 0.0625 0  0.125 0.0625 0  0.15625 0.0625 0  0.1875 0.0625 0  0.21875 0.0625 0  0.25 0.0625 0  0.28125 0.0625 0  0.3125 0.0625 0  0.34375 0.0625 0  0.375 0.0625 0  0.40625 0.0625 0  0.4375 0.0625 0  0.46875 0.0625 0  0.5 0.0625 0  0.53125 0.0625 0  0.5625 0.0625 0  0.59375 0.0625 0  0.625 0.0625 0  0.65625 0.0625 0  0.6875 0.0625 0  0.71875 0.0625 0  0.75 0.0625 0  0.78125 0.0625 0  0.8125 0.0625 0  0.84375 0.0625 0  0.875 0.0625 0  0.90625 0.0625 0  0.9375 0.0625 0  0.96875 0.0625 0  1 0.0625 0  0 0.09375 0  0.03125 0.09375 0  0.0625 0.09375 0  0.09375 0.09375 0  0.125 0.09375 0  0.15625 0.09375 0  0.1875 0.09375 0  0.21875 0.09375 0  0.25 0.09375 0  0.28125 0.09375 0  0.3125 0.09375 0  0.34375 0.09375 0  0.375 0.09375 0  0.40625 0.09375 0  0.4375 0.09375 0  0.46875 0.09375 0  0.5 0.09375 0  0.53125 0.09375 0  0.5625 0.09375 0  0.59375 0.09375 0  0.625 0.09375 0  0.65625 0.09375 0  0.6875 0.09375 0  0.71875 0.09375 0  0.75 0.09375 0  0.78125 0.09375 0  0.8125 0.09375 0  0.84375 0.09375 0  0.875 0.09375 0  0.90625 0.09375 0  0.9375 0.09375 0  0.96875 0.09375 0  1 0.09375 0  0 0.125 0  0.03125 0.125 0  0.0625 0.125 0  0.09375 0.125 0  0.125 0.125 0  0.15625 0.125 0  0.1875 0.125 0  0.21875 0.125 0  0.25 0.125 0  0.28125 0.125 0  0.3125 0.125 0  0.34375 0.125 0  0.375 0.125 0  0.40625 0.125 0  0.4375 0.125 0  0.46875 0.125 0  0.5 0.125 0  0.53125 0.125 0  0.5625 0.125 0  0.59375 0.125 0  0.625 0.125 0  0.65625 0.125 0  0.6875 0.125 0  0.71875 0.125 0  0.75 0.125 0  0.78125 0.125 0  0.8125 0.125 0  0.84375 0.125 0  0.875 0.125 0  0.90625 0.125 0  0.9375 0.125 0  0.96875 0.125 0  1 0.125 0  0 0.15625 0  0.03125 0.15625 0  0.0625 0.15625 0  0.09375 0.15625 0  0.125 0.15625 0  0.15625 0.15625 0  0.1875 0.15625 0  0.21875 0.15625 0  0.25 0.15625 0  0.28125 0.15625 0  0.3125 0.15625 0  0.34375 0.15625 0  0.375 0.15625 0  0.40625 0.15625 0  0.4375 0.15625 0  0.46875 0.15625 0  0.5 0.15625 0  0.53125 0.15625 0  0.5625 0.15625 0  0.59375 0.15625 0  0.625 0.15625 0  0.65625 0.15625 0  0.6875 0.15625 0  0.71875 0.15625 0  0.75 0.15625 0  0.78125 0.15625 0  0.8125 0.15625 0  0.84375 0.15625 0  0.875 0.15625 0  0.90625 0.15625 0  0.9375 0.15625 0  0.96875 0.15625 0  1 0.15625 0  0 0.1875 0  0.03125 0.1875 0  0.0625 0.1875 0  0.09375 0.1875 0  0.125 0.1875 0  0.15625 0.1875 0  0.1875 0.1875 0  0.21875 0.1875 0  0.25 0.1875 0  0.28125 0.1875 0  0.3125 0.1875 0  0.34375 0.1875 0  0.375 0.1875 0  0.40625 0.1875 0  0.4375 0.1875 0  0.46875 0.1875 0  0.5 0.1875 0  0.53125 0.1875 0  0.5625 0.1875 0  0.59375 0.1875 0  0.625 0.1875 0  0.65625 0.1875 0  0.6875 0.1875 0  0.71875 0.1875 0  0.75 0.1875 0  0.78125 0.1875 0  0.8125 0.1875 0  0.84375 0.1875 0  0.875 0.1875 0  0.90625 0.1875 0  0.9375 0.1875 0  0.96875 0.1875 0  1 0.1875 0  0 0.21875 0  0.03125 0.21875 0  0.0625 0.21875 0  0.09375 0.21875 0  0.125 0.21875 0  0.15625 0.21875 0  0.1875 0.21875 0  0.21875 0.21875 0  0.25 0.21875 0  0.28125 0.21875 0  0.3125 0.21875 0  0.34375 0.21875 0  0.375 0.21875 0  0.40625 0.21875 0  0.4375 0.21875 0  0.46875 0.21875 0  0.5 0.21875 0  0.53125 0.21875 0  0.5625 0.21875 0  0.59375 0.21875 0  0.625 0.21875 0  0.65625 0.21875 0  0.6875 0.21875 0  0.71875 0.21875 0  0.75 0.21875 0  0.78125 0.21875 0  0.8125 0.21875 0  0.84375 0.21875 0  0.875 0.21875 0  0.90625 0.21875 0  0.9375 0.21875 0  0.96875 0.21875 0  1 0.21875 0  0 0.25 0  0.03125 0.25 0  0.0625 0.25 0  0.09375 0.25 0  0.125 0.25 0  0.15625 0.25 0  0.1875 0.25 0  0.21875 0.25 0  0.25 0.25 0  0.28125 0.25 0  0.3125 0.25 0  0.34375 0.25 0  0.375 0.25 0  0.40625 0.25 0  0.4375 0.25 0  0.46875 0.25 0  0.5 0.25 0  0.53125 0.25 0  0.5625 0.25 0  0.59375 0.25 0  0.625 0.25 0  0.65625 0.25 0  0.6875 0.25 0  0.71875 0.25 0  0.75 0.25 0  0.78125 0.25 0  0.8125 0.25 0  0.84375 0.25 0  0.875 0.25 0  0.90625 0.25 0  0.9375 0.25 0  0.96875 0.25 0  1 0.25 0  0 0.28125 0  0.03125 0.28125 0  0.0625 0.28125 0  0.09375 0.28125 0  0.125 0.28125 0  0.15625 0.28125 0  0.1875 0.28125 0  0.21875 0.28125 0  0.25 0.28125 0  0.28125 0.28125 0  0.3125 0.28125 0  0.34375 0.28125 0  0.375 0.28125 0  0.40625 0.28125 0  0.4375 0.28125 0  0.46875 0.28125 0  0.5 0.28125 0  0.53125 0.28125 0  0.5625 0.28125 0  0.59375 0.28125 0  0.625 0.28125 0  0.65625 0.28125 0  0.6875 0.28125 0  0.71875 0.28125 0  0.75 0.28125 0  0.78125 0.28125 0  0.8125 0.28125 0  0.84375 0.28125 0  0.875 0.28125 0  0.90625 0.28125 0  0.9375 0.28125 0  0.96875 0.28125 0  1 0.28125 0  0 0.3125 0  0.03125 0.3125 0  0.0625 0.3125 0  0.09375 0.3125 0  0.125 0.3125 0  0.15625 0.3125 0  0.1875 0.3125 0  0.21875 0.3125 0  0.25 0.3125 0  0.28125 0.3125 0  0.3125 0.3125 0  0.34375 0.3125 0  0.375 0.3125 0  0.40625 0.3125 0  0.4375 0.3125 0  0.46875 0.3125 0  0.5 0.3125 0  0.53125 0.3125 0  0.5625 0.3125 0  0.59375 0.3125 0  0.625 0.3125 0  0.65625 0.3125 0  0.6875 0.3125 0  0.71875 0.3125 0  0.75 0.3125 0  0.78125 0.3125 0  0.8125 0.3125 0  0.84375 0.3125 0  0.875 0.3125 0  0.90625 0.3125 0  0.9375 0.3125 0  0.96875 0.3125 0  1 0.3125 0  0 0.34375 0  0.03125 0.34375 0  0.0625 0.34375 0  0.09375 0.34375 0  0.125 0.34375 0  0.15625 0.34375 0  0.1875 0.34375 0  0.21875 0.34375 0  0.25 0.34375 0  0.28125 0.34375 0  0.3125 0.34375 0  0.34375 0.34375 0  0.375 0.34375 0  0.40625 0.34375 0  0.4375 0.34375 0  0.46875 0.34375 0  0.5 0.34375 0  0.53125 0.34375 0  0.5625 0.34375 0  0.59375 0.34375 0  0.625 0.34375 0  0.65625 0.34375 0  0.6875 0.34375 0  0.71875 0.34375 0  0.75 0.34375 0  0.78125 0.34375 0  0.8125 0.34375 0  0.84375 0.34375 0  0.875 0.34375 0  0.90625 0.34375 0  0.9375 0.34375 0  0.96875 0.34375 0  1 0.34375 0  0 0.375 0  0.03125 0.375 0  0.0625 0.375 0  0.09375 0.375 0  0.125 0.375 0  0.15625 0.375 0  0.1875 0.375 0  0.21875 0.375 0  0.25 0.375 0  0.28125 0.375 0  0.3125 0.375 0  0.34375 0.375 0  0.375 0.375 0  0.40625 0.375 0  0.4375 0.375 0  0.46875 0.375 0  0.5 0.375 0  0.53125 0.375 0  0.5625 0.375 0  0.59375 0.375 0  0.625 0.375 0  0.65625 0.375 0  0.6875 0.375 0  0.71875 0.375 0  0.75 0.375 0  0.78125 0.375 0  0.8125 0.375 0  0.84375 0.375 0  0.875 0.375 0  0.90625 0.375 0  0.9375 0.375 0  0.96875 0.375 0  1 0.375 0  0 0.40625 0  0.03125 0.40625 0  0.0625 0.40625 0  0.09375 0.40625 0  0.125 0.40625 0  0.15625 0.40625 0  0.1875 0.40625 0  0.21875 0.40625 0  0.25 0.40625 0  0.28125 0.40625 0  0.3125 0.40625 0  0.34375 0.40625 0  0.375 0.40625 0  0.40625 0.40625 0  0.4375 0.40625 0  0.46875 0.40625 0  0.5 0.40625 0  0.53125 0.40625 0  0.5625 0.40625 0  0.59375 0.40625 0  0.625 0.40625 0  0.65625 0.40625 0  0.6875 0.40625 0  0.71875 0.40625 0  0.75 0.40625 0  0.78125 0.40625 0  0.8125 0.40625 0  0.84375 0.40625 0  0.875 0.40625 0  0.90625 0.40625 0  0.9375 0.40625 0  0.96875 0.40625 0  1 0.40625 0  0 0.4375 0  0.03125 0.4375 0  0.0625 0.4375 0  0.09375 0.4375 0  0.125 0.4375 0  0.15625 0.4375 0  0.1875 0.4375 0  0.21875 0.4375 0  0.25 0.4375 0  0.28125 0.4375 0  0.3125 0.4375 0  0.34375 0.4375 0  0.375 0.4375 0  0.40625 0.4375 0  0.4375 0.4375 0  0.46875 0.4375 0  0.5 0.4375 0  0.53125 0.4375 0  0.5625 0.4375 0  0.59375 0.4375 0  0.625 0.4375 0  0.65625 0.4375 0  0.6875 0.4375 0  0.71875 0.4375 0  0.75 0.4375 0  0.78125 0.4375 0  0.8125 0.4375 0  0.84375 0.4375 0  0.875 0.4375 0  0.90625 0.4375 0  0.9375 0.4375 0  0.96875 0.4375 0  1 0.4375 0  0 0.46875 0  0.03125 0.46875 0  0.0625 0.46875 0  0.09375 0.46875 0  0.125 0.46875 0  0.15625 0.46875 0  0.1875 0.46875 0  0.21875 0.46875 0  0.25 0.46875 0  0.28125 0.46875 0  0.3125 0.46875 0  0.34375 0.46875 0  0.375 0.46875 0  0.40625 0.46875 0  0.4375 0.46875 0  0.46875 0.46875 0  0.5 0.46875 0  0.53125 0.46875 0  0.5625 0.46875 0  0.59375 0.46875 0  0.625 0.46875 0  0.65625 0.46875 0  0.6875 0.46875 0  0.71875 0.46875 0  0.75 0.46875 0  0.78125 0.46875 0  0.8125 0.46875 0  0.84375 0.46875 0  0.875 0.46875 0  0.90625 0.46875 0  0.9375 0.46875 0  0.96875 0.46875 0  1 0.46875 0  0 0.5 0  0.03125 0.5 0  0.0625 0.5 0  0.09375 0.5 0  0.125 0.5 0  0.15625 0.5 0  0.1875 0.5 0  0.21875 0.5 0  0.25 0.5 0  0.28125 0.5 0  0.3125 0.5 0  0.34375 0.5 0  0.375 0.5 0  0.40625 0.5 0  0.4375 0.5 0  0.46875 0.5 0  0.5 0.5 0  0.53125 0.5 0  0.5625 0.5 0  0.59375 0.5 0  0.625 0.5 0  0.65625 0.5 0  0.6875 0.5 0  0.71875 0.5 0  0.75 0.5 0  0.78125 0.5 0  0.8125 0.5 0  0.84375 0.5 0  0.875 0.5 0  0.90625 0.5 0  0.9375 0.5 0  0.96875 0.5 0  1 0.5 0  0 0.53125 0  0.03125 0.53125 0  0.0625 0.53125 0  0.09375 0.53125 0  0.125 0.53125 0  0.15625 0.53125 0  0.1875 0.53125 0  0.21875 0.53125 0  0.25 0.53125 0  0.28125 0.53125 0  0.3125 0.53125 0  0.34375 0.53125 0  0.375 0.53125 0  0.40625 0.53125 0  0.4375 0.53125 0  0.46875 0.53125 0  0.5 0.53125 0  0.53125 0.53125 0  0.5625 0.53125 0  0.59375 0.53125 0  0.625 0.53125 0  0.65625 0.53125 0  0.6875 0.53125 0  0.71875 0.53125 0  0.75 0.53125 0  0.78125 0.531
[...]
<PointData  Scalars="ControlVisualisation"> 
<DataArray  type="Float64"  Name="ControlVisualisation"  format="ascii">7.0103385832940823e-01  7.0555142535507187e-01  6.5006020347637217e-01  6.2578584493114975e-01  6.0003643034830412e-01  5.7109291142209972e-01  5.2256291470808747e-01  4.7485461647436750e-01  4.3683565761022058e-01  4.1492812546052721e-01  3.8719463259212700e-01  3.5672626994282014e-01  3.2633066203119321e-01  3.0047807799072757e-01  2.8100506565594230e-01  2.6892790356822649e-01  2.6483121755147165e-01  2.6891327858229164e-01  2.8097269212948184e-01  3.0042181997554840e-01  3.2623779155842697e-01  3.5653430095695021e-01  3.8669119481536190e-01  4.1324111502006466e-01  4.3397256160137354e-01  4.7144951393539425e-01  5.2141750185977376e-01  5.7222977464778046e-01  6.0116763363047832e-01  6.2396932629606561e-01  6.5334116133222431e-01  7.0954584233299034e-01  7.0079689103297904e-01  7.0843635502019919e-01  6.4942284976780051e-01  7.1072005711752551e-01  6.1624544316515373e-01  6.1683232826613021e-01  5.6335807878746846e-01  5.2089263438788447e-01  4.7429236481485998e-01  4.4958069727532668e-01  4.0563322043747274e-01  3.8334308902320219e-01  3.5155191604963087e-01  3.2226207445532451e-01  2.9628693909756043e-01  2.7654780919813382e-01  2.6425441921113274e-01  2.6004211114728015e-01  2.6411467214498979e-01  2.7627076224434050e-01  2.9587557573886675e-01  3.2170002466597541e-01  3.5078150999929697e-01  3.8181723756118913e-01  4.0399449096806317e-01  4.4539632581281446e-01  4.7146315924995719e-01  5.1962861402958194e-01  5.6406793374832442e-01  6.1519110767112839e-01  6.1832972788229956e-01  7.0743383343765120e-01  6.5891260575925215e-01  7.1199330368072833e-01  6.6394845116944345e-01  7.1989668094676518e-01  6.1462805997758352e-01  6.4940822099256557e-01  5.6893970762865342e-01  5.6334504623348092e-01  5.2779211388175706e-01  4.8719271294405581e-01  4.2731654062808544e-01  4.1555146708895413e-01  3.7688665695055962e-01  3.5238373076845508e-01  3.2457665539570058e-01  2.9989391650445441e-01  2.8085724634750231e-01  2.6897308726651192e-01  2.6489234489403057e-01  2.6881937025550395e-01  2.8055380412709074e-01  2.9944514870036604e-01  3.2396518091265242e-01  3.5144209618609068e-01  3.7563165570025991e-01  4.1223681202744916e-01  4.2610182637507532e-01  4.8336758850030953e-01  5.2573590040055751e-01  5.6262446502226304e-01  5.7013662941486498e-01  6.4685526409585581e-01  6.2012727202046514e-01  7.1716031873434982e-01  6.6735824696406876e-01  6.5312965778062138e-01  6.4103926805623801e-01  6.6876176157601086e-01  6.2137698685070797e-01  5.9235883067123585e-01  5.5660408619477353e-01  5.1330349695023170e-01  4.5618733496578362e-01  4.5892022779897845e-01  3.9642619962816222e-01  3.7912768003493569e-01  3.5406506994203779e-01  3.2989775961370388e-01  3.0710576413580254e-01  2.8937495067419200e-01  2.7828817902121883e-01  2.7448710512817898e-01  2.7816479183372578e-01  2.8913107378733544e-01  3.0674395147319450e-01  3.2939308614865281e-01  3.5327627558385905e-01  3.7749391129168164e-01  3.9525073907393127e-01  4.5403879916094148e-01  4.5564720942161963e-01  5.1236136417681677e-01  5.5640056350936640e-01  5.8970706558523645e-01  6.2315137554416822e-01  6.6663838767154837e-01  6.4454796027473227e-01  6.5247969668143946e-01  6.4359698433421830e-01  6.6188230125102498e-01  6.0994229399187005e-01  6.1521653592800463e-01  5.1874133592810168e-01  5.1372338649760607e-01  4.9563590052499051e-01  4.9208122075520000e-01  4.1587524997003689e-01  4.0954753867155713e-01  3.8270845040559404e-01  3.6849553582896444e-01  3.5067837268343116e-01  3.3260959450421390e-01  3.1828091812454962e-01  3.0932780999177489e-01  3.0635670944087601e-01  3.0954427154144848e-01  3.1870323813383389e-01  3.3321316295431919e-01  3.5140091293118686e-01  3.6914725986392460e-01  3.8291903760639057e-01  4.0836294515950949e-01  4.1770505125551527e-01  4.8801429560505116e-01  4.9602535426069283e-01  5.1635950108102147e-01  5.2050562346249662e-01  6.1511076937026077e-01  6.1339902591761153e-01  6.6225974972706614e-01  6.4549844632767328e-01  6.3852752748550068e-01  6.3121525293393532e-01  6.2321462897325530e-01  5.9410032495402365e-01  5.1858728542124832e-01  5.5105061917883269e-01  5.3345591542991844e-01  4.2839212934198700e-01  4.4522225596828141e-01  3.9171026657642938e-01  3.7041361300115061e-01  3.5552754904569323e-01  3.3609281840568866e-01  3.1621647989486468e-01  3.0041976128508485e-01  2.9047829179686713e-01  2.8706490665479018e-01  2.9038218652883041e-01  3.0023091299728799e-01  3.1593692470128043e-01  3.3569508952688665e-01  3.5487912109994502e-01  3.6925609544825361e-01  3.8996927915505136e-01  4.4153562299071353e-01  4.3054888104233174e-01  5.2841654674918836e-01  5.4957918694187935e-01  5.1913955006666901e-01  5.9532631588618889e-01  6.2438359623108841e-01  6.3407519576986660e-01  6.4079132831742114e-01  6.1511687472870191e-01  6.1755681585174149e-01  6.1622155657395539e-01  5.8049293995780493e-01  5.2187592917064574e-01  5.6139141191401154e-01  4.4745883759008875e-01  4.7831304935357405e-01  4.2312766687670378e-01  3.8408456457155016e-01  3.6774777083606774e-01  3.5668498972875062e-01  3.3981261286726444e-01  3.2179176645388197e-01  3.0730671236862883e-01  2.9817006509094601e-01  2.9505052223113476e-01  2.9814634744707852e-01  3.0725848386097487e-01  3.2171306951207801e-01  3.3966363475250172e-01  3.5631161856711346e-01  3.6692496613781894e-01  3.8291261231179130e-01  4.2183790678919847e-01  4.7416017534579707e-01  4.5120416501813199e-01  5.5725199542851855e-01  5.2080183669144908e-01  5.8132855182810572e-01  6.1678435654381158e-01  6.1906948142144880e-01  6.1597901366296204e-01  5.9391535995772726e-01  5.9899650983649533e-01  6.0342234203891443e-01  5.4962572300817547e-01  5.3669692999006280e-01  4.8279538760157875e-01  5.0490273172969857e-01  4.4912993764243930e-01  4.1183685802754838e-01  3.7716000290904172e-01  3.6454218775049307e-01  3.5653289683409561e-01  3.4190542187951356e-01  3.2540354623331080e-01  3.1193668391325985e-01  3.0340486250659610e-01  3.0050832147123652e-01  3.0345429141526081e-01  3.1203130059731715e-01  3.2553059566552395e-01  3.4201513830162839e-01  3.5645668432403427e-01  3.6403024218580243e-01  3.7640812070122220e-01  4.1134730546473658e-01  4.4832889581034857e-01  5.0142748444422280e-01  4.8643596017576801e-01  5.3191330228276568e-01  5.5155534915153559e-01  6.0281375561235084e-01  5.9964479604136289e-01  5.9328332769082703e-01  5.8046980394909653e-01  6.0249255880362385e-01  5.7216880811829973e-01  5.8035260911579301e-01  4.8038769827575228e-01  5.2680421473028149e-01  4.7483748566002038e-01  4.3578055282557737e-01  4.0260384746864397e-01  3.6986743174379932e-01  3.5933421616407646e-01  3.5363218439800015e-01  3.4057480403879165e-01  3.2503788319868832e-01  3.1217751503235269e-01  3.0399343740343437e-01  3.0122403465937136e-01  3.0408775541929739e-01  3.1235935706375900e-01  3.2528973274875561e-01  3.4084132915796489e-01  3.5374072578658267e-01  3.5902669329210246e-01  3.6931007252299114e-01  4.0244134235980639e-01  4.3571998882124130e-01  4.7469938322552452e-01  5.2481885009222784e-01  4.8151526680685458e-01  5.7803575802328500e-01  5.7408716181644426e-01  6.0174656607758636e-01  5.8033291037966928e-01  5.8319048323258904e-01  5.8657210084560973e-01  5.8891413027402961e-01  5.4461054251574292e-01  4.9306760275897510e-01  4.9842487735881674e-01  4.6003150030555279e-01  4.2476841433597623e-01  3.9412076608193558e-01  3.6257058934526276e-01  3.5433652896578915e-01  3.5100405222878578e-01  3.3950632501831857e-01  3.2488377722430073e-01  3.1256638385636049e-01  3.0468585883633065e-01  3.0204368400725512e-01  3.0487788236049207e-01  3.1293837335248087e-01  3.2540845276826752e-01  3.4011684210246018e-01  3.5152035374848145e-01  3.5449305838642803e-01  3.6249261217935630e-01  3.9439140816581975e-01  4.2526903559640494e-01  4.6072694583211504e-01  4.9917209795558726e-01  4.9165223541459374e-01  5.4613906176932292e-01  5.8853823064533084e-01  5.8781039344444386e-01  5.8333065104091097e-01  5.8338808849299584e-01  5.9307911404957570e-01  5.7629166242595020e-01  5.4953183744835365e-01  4.7744537194799985e-01  4.9182247850911387e-01  4.5394702247458296e-01  4.1818143613985675e-01  3.8628529611273188e-01  3.5323351040256740e-01  3.4452499648932272e-01  3.4088163954989503e-01  3.2854624449712805e-01  3.1282799448580839e-01  2.9951278244472479e-01  2.9093974760399505e-01  2.8802755422761284e-01  2.9105631222060496e-01  2.9973862447796407e-01  3.1314508960122978e-01  3.2890290486259144e-01  3.4112457437287486e-01  3.4442134633578431e-01  3.5289940452894608e-01  3.8625503596571442e-01  4.1836300681641392e-01  4.5443234621019218e-01  4.9253879196405392e-01  4.7717171445650908e-01  5.4997615078798678e-01  5.7736529246929258e-01  5.9366920986185356e-01  5.8390324092932511e-01  5.8232880768578876e-01  5.9072118776973659e-01  5.7847713801421274e-01  5.4657261733660834e-01  4.7488587145597627e-01  4.9055005621117814e-01  4.5112983634192722e-01  4.1317573344969344e-01  3.7916158433641634e-01  3.4376665761105385e-01  3.3366358744236940e-01  3.2883623694027375e-01  3.1495600185729478e-01  2.9760503571981961e-01  2.8290874433377450e-01  2.7340653437042772e-01  2.7013123795553878e-01  2.7340477056547607e-01  2.8290528497726597e-01  2.9759606443584896e-01  3.1491236597615380e-01  3.2864249597977757e-01  3.3313423653947788e-01  3.4301672181168447e-01  3.7867142260626113e-01  4.1288503619130157e-01  4.5113265715386808e-01  4.9085942408969302e-01  4.7444429216039302e-01  5.4713221880864604e-01  5.7914744991601097e-01  5.9149298131408190e-01  5.8276934661500968e-01  5.7939732570539171e-01  5.8945621234899637e-01  5.7678631021755034e-01  5.4523782694809253e-01  4.7145991213117755e-01  4.8801787860759643e-01  4.4728742624458412e-01  4.0798669653455688e-01  3.7271406317354511e-01  3.3589390878779368e-01  3.2517062660884805e-01  3.1986863647768193e-01  3.0515345197862476e-01  2.8682169718720374e-01  2.7126875151317714e-01  2.6118767684117206e-01  2.5769645526077650e-01  2.6114697144551874e-01  2.7118969491950051e-01  2.8670537606623875e-01  3.0498144317102538e-01  3.1955198605407598e-01  3.2456185687316053e-01  3.3509233452595583e-01  3.7212275947350282e-01  4.0756453642496182e-01  4.4711830978183631e-01  4.8811992573682061e-01  4.7098632306963051e-01  5.4562389222146401e-01  5.7735754587633747e-01  5.9005894984601803e-01  5.7976493471833179e-01  5.7682199602742490e-01  5.8746606648065125e-01  5.7486067942767494e-01  5.4282220379394086e-01  4.6733390015372489e-01  4.8469330594657878e-01  4.4322034237294816e-01  4.0318087500981697e-01  3.6725718857283318e-01  3.2965824586998693e-01  3.1879378242729606e-01  3.1343507580642327e-01  2.9832879424460368e-01  2.7943793713754117e-01  2.6336989068351357e-01  2.5293733628752718e-01  2.4932402565143347e-01  2.5290418375847790e-01  2.6330523572446757e-01  2.7934233931911306e-01  2.9818782988677339e-01  3.1318024775001196e-01  3.1831131136545404e-01  3.2902317216544630e-01  3.6677924858647321e-01  4.0283083620656790e-01  4.4306366983795309e-01  4.8474677318469073e-01  4.6694817641064695e-01  5.4310431728562625e-01  5.7529021185347662e-01  5.8793047197522075e-01  5.7710401340785622e-01  5.7501141174577297e-01  5.8597487520318048e-01  5.7321896422533414e-01  5.4076862154873795e-01  4.6398229156606829e-01  4.8198729900172843e-01  4.4001030380998563e-01  3.9947510026824740e-01  3.6311985187362739e-01  3.2499254981813341e-01  3.1406872915763956e-01  3.0870191811088843e-01  2.9332715938992004e-01  2.7403407656308948e-01  2.5759075360680045e-01  2.4690174325623723e-01  2.4320189858400507e-01  2.4688274342596767e-01  2.5755347133731088e-01  2.7397816989342760e-01  2.9324198054776984e-01  3.0854021650410168e-01  3.1375247502742337e-01  3.2457117920965584e-01  3.6280232165836701e-01  3.9924217573181148e-01  4.3990634211759355e-01  4.8202451143974889e-01  4.6372187616426408e-01  5.4095871452425071e-01  5.7350989022858767e-01  5.8628917480460097e-01  5.7520283633254299e-01  5.7397683677829181e-01  5.8511793166283665e-01  5.7225289099003174e-01  5.3952601935547007e-01  4.6190444508797512e-01  4.8032495790773189e-01  4.3802041093018296e-01  3.9716269959740946e-01  3.6052503950120235e-01  3.2205260081280923e-01  3.1108529694681614e-01  3.0570670335873268e-01  2.9015220751048881e-01  2.7059410512758175e-01  2.5390454085114877e-01  2.4304769976032745e-01  2.3929174345406640e-01  2.4303951339048396e-01  2.5388839675846236e-01  2.7056959489114973e-01  2.9011369751035621e-01  3.0563020230258109e-01  3.1093133721962457e-01  3.2184550698630066e-01  3.6036930056000871e-01  3.9704875707599169e-01  4.3797046064387846e-01  4.8034532594959745e-01  4.6177530157908819e-01  5.3962212983197955e-01  5.7239935639319894e-01  5.8527605411287398e-01  5.7407337533323977e-01  5.7367213426635555e-01  5.8489180047412348e-01  5.7198490709891892e-01  5.3914781672974110e-01  4.6117147521079693e-01  4.7977922483932567e-01  4.3734006582800478e-01  3.9635140641688837e-01  3.5960304153016731e-01  3.2099554011722881e-01  3.1002819718571339e-01  3.0466753195983642e-01  2.8906136343507832e-01  2.6941522477907071e-01  2.5264258926090422e-01  2.4172976167879281e-01  2.3795661232311421e-01  2.4172986999295043e-01  2.5264284010379873e-01  2.6941568777798219e-01  2.8906219840372355e-01  3.0466917409506405e-01  3.1003129477528396e-01  3.2099971172003250e-01  3.5960662103351598e-01  3.9635445010139037e-01  4.3734215350134775e-01  4.7978018824956448e-01  4.6117470548636985e-01  5.3914744071938869e-01  5.7198356512045490e-01  5.8489025772925096e-01  5.7367164077777921e-01  5.7407927370408196e-01  5.8528093747884091e-01  5.7240561906464693e-01  5.3963071452218048e-01  4.6179002716417072e-01  4.8035967278357827e-01  4.3798862739728428e-01  3.9707128715126361e-01  3.6039628910669691e-01  3.2187778251419419e-01  3.1096760999708456e-01  3.0567028574920307e-01  2.9015831456821040e-01  2.7061884176248313e-01  2.5394155195761620e-01  2.4309528391335097e-01  2.3934849246553705e-01  2.4310369074276958e-01  2.5395820366698296e-01  2.7064428553985509e-01  2.9019849857943902e-01  3.0575006415776335e-01  3.1112773482071204e-01  3.2209317430298212e-01  3.6055915702554658e-01  3.9719129620687099e-01  4.3804275172099721e-01  4.8034124572260245e-01  4.6192559953316614e-01  5.3953388538714797e-01  5.7225651113444898e-01  5.8511977429758910e-01  5.7398177086971158e-01  5.7521347975785453e-01  5.8629678030140286e-01  5.7352040490447187e-01  5.4097475367376746e-01  4.6375359984943104e-01  4.8205323087138940e-01  4.3994368465750766e-01  3.9928902477178940e-01  3.6285841294902665e-01  3.2463817154066016e-01  3.1382613473289817e-01  3.0861975863203034e-01  2.9332944655610488e-01  2.7407418210008644e-01  2.5765679239821215e-01  2.4699095511374836e-01  2.4331188930298714e-01  2.4701018240640352e-01  2.5769459516341386e-01  2.7413103515817866e-01  2.9341630368602534e-01  3.0878470773403999e-01  3.1414845709220368e-01  3.2506769987601492e-01  3.6318297708695135e-01  3.9952795260971347e-01  4.4005181068765897e-01  4.8201800324515737e-01  4.6402034551787408e-01  5.4078404333032359e-01  5.7322695669685297e-01  5.8597957325976247e-01  5.7502115742752447e-01  5.7711810157011612e-01  5.8793965311858809e-01  5.7530375083163321e-01  5.4312643558136120e-01  4.6699504982406609e-01  4.8478811292069568e-01  4.4311814490345164e-01  4.0289960871149383e-01  3.6686164232440516e-01  3.2912157073366943e-01  3.1841860497359659e-01  3.1329500845539043e-01  2.9831331601046279e-01  2.7947967454256017e-01  2.6345275419752257e-01  2.5305850953530895e-01  2.4948080456934910e-01  2.5309189428657675e-01  2.6351793647171384e-01  2.7957622399466092e-01  2.9845594702679878e-01  3.1355301971801974e-01  3.1890697305646276e-01  3.2976456581355040e-01  3.6734645807497524e-01  4.0325554649248241e-01  4.4327897006744615e-01  4.8473670368895100e-01  4.6738695169210254e-01  5.4284387446962890e-01  5.7487189753531032e-01  5.8747255928256470e-01  5.7683529383104326e-01  5.7978061577651241e-01  5.9006822001786963e-01  5.7737278233868006e-01  5.4565059209511135e-01  4.7104614842957748e-01  4.8817178003187633e-01  4.4718730080412927e-01  4.0765201222208591e-01  3.7222756647614175e-01  3.3521744098202899e-01  3.2469740822047455e-01  3.1969588889981598e-01  3.0513803765367481e-01  2.8687627480256817e-01  2.7137292809717617e-01  2.6133844925362043e-01  2.5789089408576471e-01  2.6137940290249223e-01  2.7145254253005419e-01  2.8699358464052971e-01  3.0531174028407465e-01  3.2001568730915964e-01  3.2531190815131927e-01  3.3602669106094829e-01  3.7282561439270540e-01  4.0808001665385851e-01  4.4736064072240739e-01  4.8807197627379884e-01  4.7152579567324082e-01  5.4526437597242350e-01  5.7679955595990329e-01  5.8946310715392991e-01  5.7941236964204890e-01  5.8278470666483551e-01  5.9150177812778781e-01  5.7916317027992004e-01  5.4716304306506847e-01  4.7451568853174192e-01  4.9092049011254735e-01  4.5121383542963417e-01  4.1298770756689301e-01  3.7879387302842160e-01  3.4316230893764993e-01  3.3329057480031721e-01  3.2880683906819741e-01  3.1509002898424576e-01  2.9778918779635954e-01  2.8311183510106858e-01  2.7362032172754802e-01  2.7035005422896918e-01  2.7362244620917886e-01  2.8311606669010231e-01  2.9779944584921630e-01  3.1513570181255418e-01  3.2900404270594730e-01  3.3382584044320207e-01  3.4392003421195871e-01  3.7929104049000423e-01  4.1328460529990368e-01  4.5121573807585302e-01  4.9061399068204692e-01  4.7496351168367135e-01  5.4660394501304288e-01  5.7849132668547665e-01  5.9072818802250238e-01  5.8234376751879902e-01  5.8391845774749829e-01  5.9367461491478324e-01  5.7738380675683598e-01  5.5000716379366510e-01  4.7725263430907583e-01  4.9260762354027077e-01  4.5452348915781488e-01  4.1847713034103162e-01  3.8638977374675154e-01  3.5305825724103135e-01  3.4458962416840289e-01  3.4129889873104102e-01  3.2908941820931659e-01  3.1334652405383590e-01  2.9995318832303119e-01  2.9127975276051726e-01  2.8825431264511853e-01  2.9116383292412817e-01  2.9972866433085871e-01  3.1303147782111373e-01  3.2873570789344436e-01  3.4106037534026534e-01  3.4470004170486673e-01  3.5340095256550730e-01  3.8642802372190604e-01  4.1830284572064513e-01  4.5404412693442520e-01  4.9189540244384644e-01  4.7753317795522887e-01  5.4956369372533254e-01  5.7631003596976671e-01  5.9308295709801440e-01  5.8340346384684716e-01  5.8334499231265280e-01  5.8782004095646645e-01  5.8854095539539053e-01  5.4617611350662132e-01  4.9172491714047717e-01  4.9923953331458765e-01  4.6082106709835308e-01  4.2538907951345684e-01  3.9453352041559930e-01  3.6266021626799461e-01  3.5466938667935555e-01  3.5170125301387023e-01  3.4030886454096165e-01  3.2561461403333053e-01  3.1315702481923091e-01  3.0510498943428849e-01  3.0227401903074941e-01  3.0491379699259041e-01  3.1278670727775965e-01  3.2509247644443950e-01  3.3970186339322866e-01  3.5118990675886885e-01  3.5452001914015724e-01  3.6274710559962031e-01  3.9427138276661211e-01  4.2489637932925850e-01  4.6013216038274507e-01  4.9849684147227480e-01  4.9314502529968862e-01  5.4465113108207208e-01  5.8891468288601800e-01  5.8658240038919818e-01  5.8320529232876395e-01  5.8034636869786227e-01  6.0173308325965824e-01  5.7410397674573965e-01  5.7803174328697093e-01  4.8160738005562231e-01  5.2485880418468700e-01  4.7478396999053080e-01  4.3583828297470206e-01  4.0258717496862034e-01  3.6948561068475355e-01  3.5921353286310775e-01  3.5393390692371168e-01  3.4104729012051882e-01  3.2551118589254491e-01  3.1259417922283361e-01  3.0433147047890269e-01  3.0147103636046918e-01  3.0423775528944463e-01  3.1241356114781188e-01  3.2526121720159684e-01  3.4078342182760946e-01  3.5382921971698322e-01  3.5952682247325041e-01  3.7005033265290110e-01  4.0275680759045790e-01  4.3590519282566176e-01  4.7492672433422339e-01  5.2684326584468311e-01  4.8048920312688881e-01  5.8034509676999535e-01  5.7218858134805761e-01  6.0247685394927863e-01  5.8048453136728961e-01  5.9327355721486974e-01  5.9962673738453809e-01  6.0278804057732327e-01  5.515815604