<?xml version="1.0"?>
<VTKFile type="UnstructuredGrid"  version="0.1"  >
<UnstructuredGrid>
<Piece  NumberOfPoints="1089" NumberOfCells="2048">
<Points>
<DataArray  type="Float64"  NumberOfComponents="3"  format="ascii">0 0 0  0.03125 0 0  0.0625 0 0  0.09375 0 0  0.125 0 0  0.15625 0 0  0.1875 0 0  0.21875 0 0  0.25 0 0  0.28125 0 0  0.3125 0 0  0.34375 0 0  0.375 0 0  0.40625 0 0  0.4375 0 0  0.46875 0 0  0.5 0 0  0.53125 0 0  0.5625 0 0  0.59375 0 0  0.625 0 0  0.65625 0 0  0.6875 0 0  0.71875 0 0  0.75 0 0  0.78125 0 0  0.8125 0 0  0.84375 0 0  0.875 0 0  0.90625 0 0  0.9375 0 0  0.96875 0 0  1 0 0  0 0.03125 0  0.03125 0.03125 0  0.0625 0.03125 0  0.09375 0.03125 0  0.125 0.03125 0  0.15625 0.03125 0  0.1875 0.03125 0  0.21875 0.03125 0  0.25 0.03125 0  0.28125 0.03125 0  0.3125 0.03125 0  0.34375 0.03125 0  0.375 0.03125 0  0.40625 0.03125 0  0.4375 0.03125 0  0.46875 0.03125 0  0.5 0.03125 0  0.53125 0.03125 0  0.5625 0.03125 0  0.59375 0.03125 0  0.625 0.03125 0  0.65625 0.03125 0  0.6875 0.03125 0  0.71875 0.03125 0  0.75 0.03125 0  0.78125 0.03125 0  0.8125 0.03125 0  0.84375 0.03125 0  0.875 0.03125 0  0.90625 0.03125 0  0.9375 0.03125 0  0.96875 0.03125 0  1 0.03125 0  0 0.0625 0  0.03125 0.0625 0  0.0625 0.0625 0  0.09375 0.0625 0  0.125 0.0625 0  0.15625 0.0625 0  0.1875 0.0625 0  0.21875 0.0625 0  0.25 0.0625 0  0.28125 0.0625 0  0.3125 0.0625 0  0.34375 0.0625 0  0.375 0.0625 0  0.40625 0.0625 0  0.4375 0.0625 0  0.46875 0.0625 0  0.5 0.0625 0  0.53125 0.0625 0  0.5625 0.0625 0  0.59375 0.0625 0  0.625 0.0625 0  0.65625 0.0625 0  0.6875 0.0625 0  0.71875 0.0625 0  0.75 0.0625 0  0.78125 0.0625 0  0.8125 0.0625 0  0.84375 0.0625 0  0.875 0.0625 0  0.90625 0.0625 0  0.9375 0.0625 0  0.96875 0.0625 0  1 0.0625 0  0 0.09375 0  0.03125 0.09375 0  0.0625 0.09375 0  0.09375 0.09375 0  0.125 0.09375 0  0.15625 0.09375 0  0.1875 0.09375 0  0.21875 0.09375 0  0.25 0.09375 0  0.28125 0.09375 0  0.3125 0.09375 0  0.34375 0.09375 0  0.375 0.09375 0  0.40625 0.09375 0  0.4375 0.09375 0  0.46875 0.09375 0  0.5 0.09375 0  0.53125 0.09375 0  0.5625 0.09375 0  0.59375 0.09375 0  0.625 0.09375 0  0.65625 0.09375 0  0.6875 0.09375 0  0.71875 0.09375 0  0.75 0.09375 0  0.78125 0.09375 0  0.8125 0.09375 0  0.84375 0.09375 0  0.875 0.09375 0  0.90625 0.09375 0  0.9375 0.09375 0  0.96875 0.09375 0  1 0.09375 0  0 0.125 0  0.03125 0.125 0  0.0625 0.125 0  0.09375 0.125 0  0.125 0.125 0  0.15625 0.125 0  0.1875 0.125 0  0.21875 0.125 0  0.25 0.125 0  0.28125 0.125 0  0.3125 0.125 0  0.34375 0.125 0  0.375 0.125 0  0.40625 0.125 0  0.4375 0.125 0  0.46875 0.125 0  0.5 0.125 0  0.53125 0.125 0  0.5625 0.125 0  0.59375 0.125 0  0.625 0.125 0  0.65625 0.125 0  0.6875 0.125 0  0.71875 0.125 0  0.75 0.125 0  0.78125 0.125 0  0.8125 0.125 0  0.84375 0.125 0  0.875 0.125 0  0.90625 0.125 0  0.9375 0.125 0  0.96875 0.125 0  1 0.125 0  0 0.15625 0  0.03125 0.15625 0  0.0625 0.15625 0  0.09375 0.15625 0  0.125 0.15625 0  0.15625 0.15625 0  0.1875 0.15625 0  0.21875 0.15625 0  0.25 0.15625 0  0.28125 0.15625 0  0.3125 0.15625 0  0.34375 0.15625 0  0.375 0.15625 0  0.40625 0.15625 0  0.4375 0.15625 0  0.46875 0.15625 0  0.5 0.15625 0  0.53125 0.15625 0  0.5625 0.15625 0  0.59375 0.15625 0  0.625 0.15625 0  0.65625 0.15625 0  0.6875 0.15625 0  0.71875 0.15625 0  0.75 0.15625 0  0.78125 0.15625 0  0.8125 0.15625 0  0.84375 0.15625 0  0.875 0.15625 0  0.90625 0.15625 0  0.9375 0.15625 0  0.96875 0.15625 0  1 0.15625 0  0 0.1875 0  0.03125 0.1875 0  0.0625 0.1875 0  0.09375 0.1875 0  0.125 0.1875 0  0.15625 0.1875 0  0.1875 0.1875 0  0.21875 0.1875 0  0.25 0.1875 0  0.28125 0.1875 0  0.3125 0.1875 0  0.34375 0.1875 0  0.375 0.1875 0  0.40625 0.1875 0  0.4375 0.1875 0  0.46875 0.1875 0  0.5 0.1875 0  0.53125 0.1875 0  0.5625 0.1875 0  0.59375 0.1875 0  0.625 0.1875 0  0.65625 0.1875 0  0.6875 0.1875 0  0.71875 0.1875 0  0.75 0.1875 0  0.78125 0.1875 0  0.8125 0.1875 0  0.84375 0.1875 0  0.875 0.1875 0  0.90625 0.1875 0  0.9375 0.1875 0  0.96875 0.1875 0  1 0.1875 0  0 0.21875 0  0.03125 0.21875 0  0.0625 0.21875 0  0.09375 0.21875 0  0.125 0.21875 0  0.15625 0.21875 0  0.1875 0.21875 0  0.21875 0.21875 0  0.25 0.21875 0  0.28125 0.21875 0  0.3125 0.21875 0  0.34375 0.21875 0  0.375 0.21875 0  0.40625 0.21875 0  0.4375 0.21875 0  0.46875 0.21875 0  0.5 0.21875 0  0.53125 0.21875 0  0.5625 0.21875 0  0.59375 0.21875 0  0.625 0.21875 0  0.65625 0.21875 0  0.6875 0.21875 0  0.71875 0.21875 0  0.75 0.21875 0  0.78125 0.21875 0  0.8125 0.21875 0  0.84375 0.21875 0  0.875 0.21875 0  0.90625 0.21875 0  0.9375 0.21875 0  0.96875 0.21875 0  1 0.21875 0  0 0.25 0  0.03125 0.25 0  0.0625 0.25 0  0.09375 0.25 0  0.125 0.25 0  0.15625 0.25 0  0.1875 0.25 0  0.21875 0.25 0  0.25 0.25 0  0.28125 0.25 0  0.3125 0.25 0  0.34375 0.25 0  0.375 0.25 0  0.40625 0.25 0  0.4375 0.25 0  0.46875 0.25 0  0.5 0.25 0  0.53125 0.25 0  0.5625 0.25 0  0.59375 0.25 0  0.625 0.25 0  0.65625 0.25 0  0.6875 0.25 0  0.71875 0.25 0  0.75 0.25 0  0.78125 0.25 0  0.8125 0.25 0  0.84375 0.25 0  0.875 0.25 0  0.90625 0.25 0  0.9375 0.25 0  0.96875 0.25 0  1 0.25 0  0 0.28125 0  0.03125 0.28125 0  0.0625 0.28125 0  0.09375 0.28125 0  0.125 0.28125 0  0.15625 0.28125 0  0.1875 0.28125 0  0.21875 0.28125 0  0.25 0.28125 0  0.28125 0.28125 0  0.3125 0.28125 0  0.34375 0.28125 0  0.375 0.28125 0  0.40625 0.28125 0  0.4375 0.28125 0  0.46875 0.28125 0  0.5 0.28125 0  0.53125 0.28125 0  0.5625 0.28125 0  0.59375 0.28125 0  0.625 0.28125 0  0.65625 0.28125 0  0.6875 0.28125 0  0.71875 0.28125 0  0.75 0.28125 0  0.78125 0.28125 0  0.8125 0.28125 0  0.84375 0.28125 0  0.875 0.28125 0  0.90625 0.28125 0  0.9375 0.28125 0  0.96875 0.28125 0  1 0.28125 0  0 0.3125 0  0.03125 0.3125 0  0.0625 0.3125 0  0.09375 0.3125 0  0.125 0.3125 0  0.15625 0.3125 0  0.1875 0.3125 0  0.21875 0.3125 0  0.25 0.3125 0  0.28125 0.3125 0  0.3125 0.3125 0  0.34375 0.3125 0  0.375 0.3125 0  0.40625 0.3125 0  0.4375 0.3125 0  0.46875 0.3125 0  0.5 0.3125 0  0.53125 0.3125 0  0.5625 0.3125 0  0.59375 0.3125 0  0.625 0.3125 0  0.65625 0.3125 0  0.6875 0.3125 0  0.71875 0.3125 0  0.75 0.3125 0  0.78125 0.3125 0  0.8125 0.3125 0  0.84375 0.3125 0  0.875 0.3125 0  0.90625 0.3125 0  0.9375 0.3125 0  0.96875 0.3125 0  1 0.3125 0  0 0.34375 0  0.03125 0.34375 0  0.0625 0.34375 0  0.09375 0.34375 0  0.125 0.34375 0  0.15625 0.34375 0  0.1875 0.34375 0  0.21875 0.34375 0  0.25 0.34375 0  0.28125 0.34375 0  0.3125 0.34375 0  0.34375 0.34375 0  0.375 0.34375 0  0.40625 0.34375 0  0.4375 0.34375 0  0.46875 0.34375 0  0.5 0.34375 0  0.53125 0.34375 0  0.5625 0.34375 0  0.59375 0.34375 0  0.625 0.34375 0  0.65625 0.34375 0  0.6875 0.34375 0  0.71875 0.34375 0  0.75 0.34375 0  0.78125 0.34375 0  0.8125 0.34375 0  0.84375 0.34375 0  0.875 0.34375 0  0.90625 0.34375 0  0.9375 0.34375 0  0.96875 0.34375 0  1 0.34375 0  0 0.375 0  0.03125 0.375 0  0.0625 0.375 0  0.09375 0.375 0  0.125 0.375 0  0.15625 0.375 0  0.1875 0.375 0  0.21875 0.375 0  0.25 0.375 0  0.28125 0.375 0  0.3125 0.375 0  0.34375 0.375 0  0.375 0.375 0  0.40625 0.375 0  0.4375 0.375 0  0.46875 0.375 0  0.5 0.375 0  0.53125 0.375 0  0.5625 0.375 0  0.59375 0.375 0  0.625 0.375 0  0.65625 0.375 0  0.6875 0.375 0  0.71875 0.375 0  0.75 0.375 0  0.78125 0.375 0  0.8125 0.375 0  0.84375 0.375 0  0.875 0.375 0  0.90625 0.375 0  0.9375 0.375 0  0.96875 0.375 0  1 0.375 0  0 0.40625 0  0.03125 0.40625 0  0.0625 0.40625 0  0.09375 0.40625 0  0.125 0.40625 0  0.15625 0.40625 0  0.1875 0.40625 0  0.21875 0.40625 0  0.25 0.40625 0  0.28125 0.40625 0  0.3125 0.40625 0  0.34375 0.40625 0  0.375 0.40625 0  0.40625 0.40625 0  0.4375 0.40625 0  0.46875 0.40625 0  0.5 0.40625 0  0.53125 0.40625 0  0.5625 0.40625 0  0.59375 0.40625 0  0.625 0.40625 0  0.65625 0.40625 0  0.6875 0.40625 0  0.71875 0.40625 0  0.75 0.40625 0  0.78125 0.40625 0  0.8125 0.40625 0  0.84375 0.40625 0  0.875 0.40625 0  0.90625 0.40625 0  0.9375 0.40625 0  0.96875 0.40625 0  1 0.40625 0  0 0.4375 0  0.03125 0.4375 0  0.0625 0.4375 0  0.09375 0.4375 0  0.125 0.4375 0  0.15625 0.4375 0  0.1875 0.4375 0  0.21875 0.4375 0  0.25 0.4375 0  0.28125 0.4375 0  0.3125 0.4375 0  0.34375 0.4375 0  0.375 0.4375 0  0.40625 0.4375 0  0.4375 0.4375 0  0.46875 0.4375 0  0.5 0.4375 0  0.53125 0.4375 0  0.5625 0.4375 0  0.59375 0.4375 0  0.625 0.4375 0  0.65625 0.4375 0  0.6875 0.4375 0  0.71875 0.4375 0  0.75 0.4375 0  0.78125 0.4375 0  0.8125 0.4375 0  0.84375 0.4375 0  0.875 0.4375 0  0.90625 0.4375 0  0.9375 0.4375 0  0.96875 0.4375 0  1 0.4375 0  0 0.46875 0  0.03125 0.46875 0  0.0625 0.46875 0  0.09375 0.46875 0  0.125 0.46875 0  0.15625 0.46875 0  0.1875 0.46875 0  0.21875 0.46875 0  0.25 0.46875 0  0.28125 0.46875 0  0.3125 0.46875 0  0.34375 0.46875 0  0.375 0.46875 0  0.40625 0.46875 0  0.4375 0.46875 0  0.46875 0.46875 0  0.5 0.46875 0  0.53125 0.46875 0  0.5625 0.46875 0  0.59375 0.46875 0  0.625 0.46875 0  0.65625 0.46875 0  0.6875 0.46875 0  0.71875 0.46875 0  0.75 0.46875 0  0.78125 0.46875 0  0.8125 0.46875 0  0.84375 0.46875 0  0.875 0.46875 0  0.90625 0.46875 0  0.9375 0.46875 0  0.96875 0.46875 0  1 0.46875 0  0 0.5 0  0.03125 0.5 0  0.0625 0.5 0  0.09375 0.5 0  0.125 0.5 0  0.15625 0.5 0  0.1875 0.5 0  0.21875 0.5 0  0.25 0.5 0  0.28125 0.5 0  0.3125 0.5 0  0.34375 0.5 0  0.375 0.5 0  0.40625 0.5 0  0.4375 0.5 0  0.46875 0.5 0  0.5 0.5 0  0.53125 0.5 0  0.5625 0.5 0  0.59375 0.5 0  0.625 0.5 0  0.65625 0.5 0  0.6875 0.5 0  0.71875 0.5 0  0.75 0.5 0  0.78125 0.5 0  0.8125 0.5 0  0.84375 0.5 0  0.875 0.5 0  0.90625 0.5 0  0.9375 0.5 0  0.96875 0.5 0  1 0.5 0  0 0.53125 0  0.03125 0.53125 0  0.0625 0.53125 0  0.09375 0.53125 0  0.125 0.53125 0  0.15625 0.53125 0  0.1875 0.53125 0  0.21875 0.53125 0  0.25 0.53125 0  0.28125 0.53125 0  0.3125 0.53125 0  0.34375 0.53125 0  0.375 0.53125 0  0.40625 0.53125 0  0.4375 0.53125 0  0.46875 0.53125 0  0.5 0.53125 0  0.53125 0.53125 0  0.5625 0.53125 0  0.59375 0.53125 0  0.625 0.53125 0  0.65625 0.53125 0  0.6875 0.53125 0  0.71875 0.53125 0  0.75 0.53125 0  0.78125 0.531
[...]
<PointData  Scalars="ControlVisualisation"> 
<DataArray  type="Float64"  Name="ControlVisualisation"  format="ascii">3.1706913183362156e-01  3.2207180920855433e-01  3.0860360449943458e-01  3.0557830967738364e-01  2.9292587383249336e-01  2.7835221172038710e-01  2.6330371517470180e-01  2.4466363032046046e-01  2.3175297027557151e-01  2.1742550436600661e-01  2.0485269530523928e-01  1.9124665249382020e-01  1.8078210955860435e-01  1.7502783843020087e-01  1.7076637520603069e-01  1.6985557019850436e-01  1.6791739185975921e-01  1.7100586855239708e-01  1.7271602459398641e-01  1.7778561015689467e-01  1.8438690181825546e-01  1.9595919920240723e-01  2.0990879349768340e-01  2.2564633293214031e-01  2.4024828571897661e-01  2.5026901690648645e-01  2.6572218681296522e-01  2.7962566274978790e-01  2.9258981807955081e-01  3.0478138492620238e-01  3.0736999202686743e-01  3.1468691676254634e-01  3.0706709567586760e-01  3.2411502563834477e-01  3.0626988381936199e-01  3.1619194890536412e-01  3.0588548935150572e-01  2.9451964252569379e-01  2.8301710551826154e-01  2.6485655919430945e-01  2.4903660033544953e-01  2.3186926578196032e-01  2.2016996170121300e-01  2.0078002865953354e-01  1.9236109073186686e-01  1.8257654876324697e-01  1.7140420396421657e-01  1.7287909555215214e-01  1.6515048365995097e-01  1.7148957119585007e-01  1.6640196753231482e-01  1.7477281508593012e-01  1.7400115615172218e-01  1.8617621768277839e-01  1.9422262864044670e-01  2.0538923116456778e-01  2.2271872626144568e-01  2.3662001759243212e-01  2.5138062407086192e-01  2.6745464594887058e-01  2.8285708723160213e-01  2.9224936217778602e-01  3.0285172114931252e-01  3.1104434054789626e-01  3.0062173995225910e-01  3.1574747474705545e-01  3.1417721533069709e-01  3.2194041318277722e-01  3.1511384920953101e-01  2.9310643019351218e-01  2.9685841733810997e-01  2.8018871833070391e-01  2.6308532994036732e-01  2.4549037434424775e-01  2.3082138038782765e-01  2.1457345250024284e-01  2.0269190418190339e-01  1.9053413836890076e-01  1.7827231949396111e-01  1.7978699715661400e-01  1.6510497148094530e-01  1.7356957682061736e-01  1.6538626932021810e-01  1.7380713775958284e-01  1.6714299461459545e-01  1.8122399428559083e-01  1.8150776452506392e-01  1.9540775333801563e-01  2.0532949280293505e-01  2.2103129781215003e-01  2.3330617762051292e-01  2.4909084864036554e-01  2.6672371913905890e-01  2.8208141834674350e-01  2.9770929833362519e-01  2.9391955425146510e-01  3.0878878576695112e-01  3.1363776151723233e-01  3.1152791832345522e-01  3.1594646685797839e-01  3.2512104636231698e-01  3.0125746439449458e-01  3.0595290824503657e-01  2.8867857835082888e-01  2.7564692672856833e-01  2.6259446153814575e-01  2.4213962593928678e-01  2.2697161946400987e-01  2.1107210842727769e-01  1.9624865098820707e-01  1.8508096147724734e-01  1.8758842535118508e-01  1.6900822540165916e-01  1.7145681157621639e-01  1.6589386524476496e-01  1.6979302972610566e-01  1.6543290738486313e-01  1.6916868444859554e-01  1.7016268704443394e-01  1.8518964368170349e-01  1.8915473302996322e-01  2.0239884180365847e-01  2.1711263513943840e-01  2.3517663653451662e-01  2.4595240439890206e-01  2.6772209274468473e-01  2.8077466593053924e-01  2.9239054626759314e-01  3.0601590851814692e-01  2.9877268806617330e-01  3.1442674719576935e-01  3.1216353579854589e-01  3.1648899194637931e-01  3.1633654011479262e-01  3.1695513881979298e-01  3.0059704151199984e-01  2.8786737622733855e-01  2.7785510779116385e-01  2.5949086658740611e-01  2.3677353405524720e-01  2.2074053209446681e-01  2.1128376450149344e-01  1.9367254363238751e-01  1.8908701111273363e-01  1.8082672651973858e-01  1.7276727613881215e-01  1.6955709519536208e-01  1.6373580318149800e-01  1.7144378656681641e-01  1.6188319619203173e-01  1.6673368441863665e-01  1.6669401369002335e-01  1.7947662505287862e-01  1.8189452776439768e-01  1.9740622910879749e-01  2.1295373790554098e-01  2.2524752595368364e-01  2.4312658253199015e-01  2.5960073620855051e-01  2.8013461474127488e-01  2.9324820083625747e-01  3.0142207088465151e-01  3.1263489988408655e-01  3.0974269245589081e-01  3.0806159862515903e-01  3.1448989151672291e-01  3.1754670093255444e-01  3.1175527997366437e-01  2.9867381768735413e-01  2.8934413338252984e-01  2.7636692998103141e-01  2.5507574508949277e-01  2.3260997253777294e-01  2.2556890955260087e-01  2.0520779183348120e-01  1.8519125709915174e-01  1.8200783386853314e-01  1.7466543404268670e-01  1.6994930947333878e-01  1.5716640284045344e-01  1.6609349158682285e-01  1.6288672297584608e-01  1.6449205226828331e-01  1.5810373621491927e-01  1.6708094413038038e-01  1.7033187629232016e-01  1.7977393935152497e-01  1.7937006236734399e-01  2.0649306361996581e-01  2.2160901543627301e-01  2.3598451941997753e-01  2.5689775475036181e-01  2.6974197872537314e-01  2.9090280217186115e-01  3.0053537609006203e-01  3.0654641660495080e-01  3.0990257173648483e-01  3.0491052060890389e-01  3.1144503988870426e-01  3.1758453788254354e-01  3.0258988474712889e-01  2.9615162768571685e-01  2.8649787668636256e-01  2.6891361194976415e-01  2.4515927118056591e-01  2.2894685562601194e-01  2.0880639163949641e-01  1.8922618284708900e-01  1.7570343145103481e-01  1.6474599088483372e-01  1.6653177144901982e-01  1.5016430287839497e-01  1.4751568332491258e-01  1.5036338504717348e-01  1.4936622628388393e-01  1.5506639174330708e-01  1.4721720832398238e-01  1.5924939971723875e-01  1.6590202518505504e-01  1.6938474250571017e-01  1.7532230811292457e-01  1.8804145962879545e-01  2.0809476062569723e-01  2.2871064719388418e-01  2.5150940279063833e-01  2.6652426876814089e-01  2.8280125228450265e-01  3.0016658254009670e-01  3.0149884757386308e-01  3.0592154459557525e-01  3.0166583615116660e-01  3.0782304759542606e-01  3.0777051187789484e-01  2.9537248921164028e-01  2.9075020277783203e-01  2.7698184032932566e-01  2.5437449159482356e-01  2.4032046523347206e-01  2.1339215883732968e-01  1.9629026420230422e-01  1.8732327132152851e-01  1.5270247894249364e-01  1.5928624217047846e-01  1.5096054816503471e-01  1.3932351601154333e-01  1.3558301114409979e-01  1.2802084689886667e-01  1.4391022151680935e-01  1.2775912053382604e-01  1.4419474223233480e-01  1.4041883964599600e-01  1.6155226475594683e-01  1.6197197576028954e-01  1.6461444427595218e-01  1.8490554733479558e-01  1.9487760326813638e-01  2.1244250034720957e-01  2.4243303355935675e-01  2.5657559024065391e-01  2.7437058848398854e-01  2.8777759453258578e-01  2.9462164111710437e-01  3.0229326298542236e-01  2.9742810824447469e-01  3.0493617361862457e-01  3.0412753655752384e-01  2.9080416813508231e-01  2.8401537686773143e-01  2.6173666118142175e-01  2.5687260208324264e-01  2.3144540229641913e-01  1.9962382937486448e-01  1.9911004351734041e-01  1.6013141868672573e-01  1.4592506866069588e-01  1.5375350349914213e-01  1.4111628876341289e-01  1.3336400001664761e-01  1.1610221204462805e-01  1.2898588939729963e-01  1.1479554693158972e-01  1.2372675388223346e-01  1.1478331534556378e-01  1.2978416587894670e-01  1.4049696428307426e-01  1.5503836306633603e-01  1.5568430328288738e-01  1.6908741024276155e-01  1.9372320545482108e-01  2.0131936162530481e-01  2.2959895271504366e-01  2.5487245336086434e-01  2.6226173934670416e-01  2.8070031699790937e-01  2.8399344572485363e-01  2.9845380201532756e-01  2.9880127676445728e-01  3.0086480878674310e-01  2.9859907149151482e-01  2.8320439579386736e-01  2.6757630464704918e-01  2.6329115337073028e-01  2.5157393775279091e-01  2.0894553761758752e-01  2.0061643066968954e-01  1.7678030147429841e-01  1.4675971206688024e-01  1.5193471957465343e-01  1.4184260275326049e-01  1.3941478615098041e-01  1.2145767311632109e-01  1.2369610827295530e-01  1.1061849880141421e-01  1.2422793590232238e-01  1.1147853709228495e-01  9.9245532850853913e-02  1.1011557292307683e-01  1.1991051873820809e-01  1.3228038337854289e-01  1.4915769151274763e-01  1.6022807332693303e-01  1.7723178408966583e-01  2.0306829583657265e-01  2.1645478703714585e-01  2.4548000899612132e-01  2.6293385656469781e-01  2.6662307854934558e-01  2.7633010814637404e-01  2.8875120664708293e-01  2.9622826061276569e-01  2.9510015077879798e-01  2.9026431111400641e-01  2.7160170715964116e-01  2.6211377989617141e-01  2.5925503248261067e-01  2.1985126772265073e-01  2.0555205290915121e-01  1.8777070001480031e-01  1.5614438353903370e-01  1.5243725323239873e-01  1.3402466713294783e-01  1.3578569394570575e-01  1.2222794923205944e-01  1.0781865765509395e-01  1.0966482404390665e-01  1.0950130341042988e-01  1.1034083850295066e-01  1.0922553497670033e-01  1.0394461208552709e-01  8.4621521448032630e-02  1.0213686310389397e-01  1.1500098123189251e-01  1.2014360162409822e-01  1.5462744858467486e-01  1.6236763035387106e-01  1.9018114694737651e-01  2.1957573722300433e-01  2.2572124551248271e-01  2.5597504898178969e-01  2.5993304973429343e-01  2.6220141423122217e-01  2.8077576265776544e-01  2.8810162053503513e-01  2.8812426958734016e-01  2.8450492380181647e-01  2.6552127992915625e-01  2.5783274252661742e-01  2.3534880290379442e-01  2.1996690778565531e-01  2.0753494353002502e-01  1.7132432491668212e-01  1.5297309622356814e-01  1.3312040386484461e-01  1.0822414591193222e-01  9.6213439674187884e-02  7.5713055872195095e-02  8.3127087342749109e-02  8.0029972828263907e-02  8.7626051925310450e-02  7.9851842509192666e-02  8.8410065480040642e-02  9.1767383038143968e-02  8.5720549012251832e-02  7.7277425814418696e-02  8.9403961196595660e-02  9.9822033010377717e-02  1.2908838325350069e-01  1.5438805715035778e-01  1.6911228926778699e-01  2.1682663608986796e-01  2.3321063250046728e-01  2.4007604209836772e-01  2.5408730956883602e-01  2.5424079927268334e-01  2.6975241731931626e-01  2.8092705428244025e-01  2.8073959694277145e-01  2.7889856873012853e-01  2.5916607530679064e-01  2.4990574644593580e-01  2.3587921632316813e-01  2.2496131828958374e-01  1.9295619753773338e-01  1.6097673077932012e-01  1.3612972698650863e-01  9.4580984856699496e-02  7.0636980935323224e-02  5.0421930242853435e-02  4.6265690690332074e-02  5.7235117698508579e-02  6.4299146994744483e-02  5.4948711212582678e-02  5.5537838911457874e-02  6.5251259471426931e-02  6.9659744717200933e-02  7.1169478359616858e-02  6.2332565418030936e-02  6.5004909660989374e-02  7.3412803289476469e-02  9.4049838411267989e-02  1.4426872379117189e-01  1.6004977313249497e-01  1.8990313175450318e-01  2.3381235795629310e-01  2.4676064858788910e-01  2.4895320390801043e-01  2.4583630019234526e-01  2.6364808114649291e-01  2.7101316127537123e-01  2.7563908756769590e-01  2.7282383788564640e-01  2.5536227718564480e-01  2.3986934292142756e-01  2.2892029568776337e-01  2.0302784213740235e-01  1.8667373544071750e-01  1.3897341451882225e-01  1.0251701332291366e-01  8.0191782585577714e-02  5.1708415287904569e-02  3.3501403588318518e-02  3.3052108215699490e-02  4.3697925039659385e-02  8.1141404489841612e-02  3.7053727291440741e-02  3.0815307877150810e-02  3.8601398843005702e-02  5.6049857287923242e-02  4.6764981626714920e-02  4.3667831592587823e-02  3.9082906755468015e-02  5.2933773339873952e-02  7.1420355741313724e-02  1.0474440227286866e-01  1.5255510558359048e-01  1.8531072032665916e-01  2.0231867422567471e-01  2.4036408077172780e-01  2.4308865787704986e-01  2.4241374582923148e-01  2.5410100801723751e-01  2.6327867152932422e-01  2.7314799052894811e-01  2.6894905104172318e-01  2.4699748429207130e-01  2.3345740202031084e-01  2.1546341481980835e-01  2.0711184995340615e-01  1.6516893771703545e-01  1.1997015651256690e-01  9.8384591655677922e-02  8.1974299564198549e-02  4.9321020657085914e-02  3.0843270099401035e-02  2.6846845773533749e-02  6.8578138644973724e-02  3.5597465928460803e-04  2.2798159303604369e-02  1.7555311553731377e-02  2.6263120802543442e-02  3.1617384648170099e-02  3.4004331936316343e-02  2.5886244905461788e-02  3.1618226511898100e-02  3.0396195006825128e-02  6.2335579763417380e-02  8.5328889099353933e-02  1.2975217001756684e-01  1.7071096297946681e-01  2.0544513846642562e-01  2.2208806423780353e-01  2.3817533483781950e-01  2.3431576578521549e-01  2.4971461215935278e-01  2.5766186286211779e-01  2.7015549927956956e-01  2.6835106446318024e-01  2.4587696575194068e-01  2.3132607300561317e-01  2.1912744374243839e-01  1.9497478745059180e-01  1.6622084178294935e-01  1.1347789771220021e-01  9.8910896237420651e-02  7.8619363811742865e-02  5.5984234231489467e-02  1.1512507951650118e-02  9.8304156934957958e-03  3.4124224616542105e-03  7.8709246704059910e-04  5.0081186000360792e-04  1.2820028920458855e-03  1.3075252700979778e-02  2.1378129684086419e-02  1.4777277674231155e-02  1.0353541985681817e-02  2.5799198838005785e-02  2.6395308730634871e-02  4.3648002154605202e-02  9.2737363743856258e-02  1.1774105793007288e-01  1.6874224795989293e-01  1.8930891751346365e-01  2.2627349074927813e-01  2.3358459242203339e-01  2.3344499972775584e-01  2.4677368923800286e-01  2.5286920392883416e-01  2.6992447112552304e-01  2.6585997256751759e-01  2.4530348021613876e-01  2.3170156535543351e-01  2.1498782365310803e-01  2.0479333132566316e-01  1.5789655088614030e-01  1.1537979911899028e-01  9.0172670699133248e-02  7.5957854854944301e-02  2.2766100748513613e-02  4.6918290125895776e-03  1.0181048977197724e-03  6.8900777226657745e-04  5.1280187617829269e-04  3.0434591759547901e-04  2.1954063742725567e-04  2.2632389311596617e-04  3.5020011450805576e-04  7.5914940002237078e-04  1.4338273554560744e-03  4.0455101929544393e-03  3.1752727170697929e-02  4.4158503142211480e-02  7.9476242705616026e-02  1.3326910726944527e-01  1.6098751983532192e-01  1.9727043011826148e-01  2.1602703868631193e-01  2.3528555906572268e-01  2.3102466017616322e-01  2.4430503496732026e-01  2.5053396021458213e-01  2.7096184168067955e-01  2.6857987182635695e-01  2.4597349693918535e-01  2.3110163310129506e-01  2.1733739640904887e-01  1.9333492811832736e-01  1.6742334638681969e-01  1.1305482077676079e-01  8.9686198955226740e-02  5.8877969498698668e-02  2.9475350005143914e-02  6.4271719365414925e-03  2.5923877794851460e-03  2.0338391546787073e-03  3.4659370070252598e-03  1.2689097744132920e-02  1.8753103159521528e-02  1.2344103159648754e-03  4.3231658985047995e-04  5.6013276704398006e-04  9.4125194594210453e-04  3.5235579847332330e-03  3.2270866784626200e-02  5.4365586866735607e-02  9.2874343809327520e-02  1.2112984033692721e-01  1.7130978197891880e-01  1.8576810824200959e-01  2.2176620601777894e-01  2.3083346380083897e-01  2.3212293415613569e-01  2.4535764427258439e-01  2.5014839230328734e-01  2.7489015261290378e-01  2.6905039848846024e-01  2.4697086676947019e-01  2.3459533605178357e-01  2.1399946519992022e-01  2.0053376882524301e-01  1.6307987929961171e-01  1.2718091287471245e-01  9.6465746274731826e-02  5.9716540681735042e-02  3.6448628090446016e-02  2.8329511534807072e-02  6.7326499682605484e-02  5.9678334188454585e-02  2.3463818637920925e-02  2.0998752742421672e-02  2.2604269649212576e-02  2.1617393799241793e-02  2.1090881324170651e-02  2.5415959484956164e-02  2.4301837410364024e-02  2.9735927212976260e-02  3.5659048271704769e-02  4.9607981420029729e-02  1.0115242829943792e-01  1.4739899457489861e-01  1.6474510471596090e-01  1.9414649870703912e-01  2.1514069589004095e-01  2.3537307726011808e-01  2.3170303145982046e-01  2.4584446035010021e-01  2.5277823198179306e-01  2.7850540669369062e-01  2.7344803255029693e-01  2.5543757377490250e-01  2.4118333168791084e-01  2.2826601864253290e-01  1.9757052676747200e-01  1.8050534535530119e-01  1.4101464279566650e-01  1.1410557129137787e-01  7.8761163688847252e-02  4.6375238992026488e-02  4.5168971772402970e-02  4.8105648877352997e-02  4.8668510581671882e-02  3.7942445235937913e-02  3.5583733982431837e-02  3.7432596294886565e-02  4.4303915397186290e-02  4.6535051494390058e-02  4.8935701599599278e-02  4.2543362787383271e-02  4.9536276268337322e-02  3.8893911545500481e-02  8.6411417996183557e-02  1.3124591452870532e-01  1.4746619636721570e-01  1.8225855744434280e-01  1.9392360711584505e-01  2.3178044409273146e-01  2.3746823026448957e-01  2.3961968665962963e-01  2.5042437050982563e-01  2.5536550660408813e-01  2.8559536069720282e-01  2.7905800374967549e-01  2.5845009860226553e-01  2.5442216261932427e-01  2.3815053272555245e-01  2.1566312555513123e-01  1.8048196698147073e-01  1.5946313087469011e-01  1.4043171066449048e-01  1.0314429541227353e-01  7.1119276360393516e-02  5.9980479306989590e-02  6.3010460379589073e-02  6.1250382748924970e-02  5.9403153922874735e-02  6.3615847852480797e-02  7.7675679855018984e-02  8.0616787432158429e-02  7.6748883459871117e-02  7.7027860544266955e-02  8.0653390970406705e-02  7.3252016610362028e-02  8.8824762477608690e-02  1.2397335734479518e-01  1.4422398562581268e-01  1.7717781380672157e-01  1.8344473339158046e-01  2.1313496499226556e-01  2.3644971579256080e-01  2.5017555353555820e-01  2.4307223600375807e-01  2.5548513108607135e-01  2.6137041072846146e-01  2.9447460743643133e-01  2.8478304293719120e-01  2.6197847931152107e-01  2.5998500456108614e-01  2.4599059048864663e-01  2.2176537361604562e-01  1.9032282203505763e-01  1.5659847176114669e-01  1.5280854166147903e-01  1.2640265062055903e-01  1.0297546509630352e-01  9.1337346437089392e-02  8.2529886507590883e-02  8.6254227168650069e-02  9.2486897815031471e-02  9.9976371615818460e-02  1.2029706128983743e-01  1.0480644955802917e-01  1.0389762016098765e-01  9.6830226051833682e-02  9.8862521857160671e-02  1.0304666436348428e-01  1.2378242576130549e-01  1.2872892479935863e-01  1.6963412745180714e-01  1.6146985392274765e-01  1.8648659333289863e-01  2.2050369623963612e-01  2.4728398883168293e-01  2.5292375874899448e-01  2.4741874164814312e-01  2.6376813561518120e-01  2.6900421617713444e-01  3.0189979066525308e-01  2.9123843348514855e-01  2.6803913546244518e-01  2.6114123768628539e-01  2.6615717070784517e-01  2.3334226061222674e-01  2.0868863666694865e-01  1.7379705036734475e-01  1.5047182772268675e-01  1.5272333514057326e-01  1.2069379793921264e-01  1.2578397771099598e-01  1.1941236498182473e-01  1.0961522359016831e-01  1.1478048482396333e-01  1.3409761472724233e-01  1.1988680627211203e-01  1.2754138376648211e-01  1.1195769433031619e-01  1.0755246925267245e-01  1.1379141851147813e-01  1.2497438837095987e-01  1.1756662213177919e-01  1.5593259510569121e-01  1.5311469849582662e-01  1.6744305086907718e-01  2.1350868386916688e-01  2.3959066239121168e-01  2.5957296491573001e-01  2.5373402355147096e-01  2.5561921003039112e-01  2.6819754541168644e-01  2.7778036357089769e-01  3.0885552662526139e-01  2.9998931921308197e-01  2.7932839417935301e-01  2.6667665319861966e-01  2.6805917321893807e-01  2.6039195473376459e-01  2.2162350765143979e-01  2.0769992371040277e-01  1.7808551098164824e-01  1.5484106814373569e-01  1.5811420115254374e-01  1.4595579237949505e-01  1.4609190363876365e-01  1.3737449785648079e-01  1.3441214271240248e-01  1.2658577268964433e-01  1.4573538067818625e-01  1.2390650579642705e-01  1.2945326746390043e-01  1.2934548037940244e-01  1.3657177357410344e-01  1.3843497695138562e-01  1.5651707695708447e-01  1.5819761374900934e-01  1.7534843633491995e-01  2.0986803040688262e-01  2.3428964327079940e-01  2.5495572496665114e-01  2.5763173869052536e-01  2.5960210124703537e-01  2.6426964386119706e-01  2.7928645031306309e-01  2.8518367492623353e-01  3.1095290885583077e-01  3.0843876622936361e-01  2.8795583889928744e-01  2.8026308608874956e-01  2.6444377069782377e-01  2.6388558844559351e-01  2.4001172326975576e-01  2.1105652509841483e-01  2.1065545610910491e-01  1.7894239862246114e-01  1.6299278525193400e-01  1.7388230889122394e-01  1.6777479623234767e-01  1.5845435122469512e-01  1.5152104643630498e-01  1.5635824638102599e-01  1.4610515630518633e-01  1.5494971272406385e-01  1.4593720353307441e-01  1.5556198088867046e-01  1.6192707720277097e-01  1.7331367893632665e-01  1.6625205820163272e-01  1.8313527301742810e-01  2.0988749847844698e-01  2.1755288214085164e-01  2.4192653403603795e-01  2.5363670593651538e-01  2.5694938367859066e-01  2.7042443084489315e-01  2.7216494589741003e-01  2.8567666839067768e-01  2.9079096154149481e-01  3.1023876136545270e-01  3.1023945509653023e-01  2.9694149945227211e-01  2.887288895