<?xml version="1.0"?>
<VTKFile type="UnstructuredGrid"  version="0.1"  >
<UnstructuredGrid>
<Piece  NumberOfPoints="1089" NumberOfCells="2048">
<Points>
<DataArray  type="Float64"  NumberOfComponents="3"  format="ascii">0 0 0  0.03125 0 0  0.0625 0 0  0.09375 0 0  0.125 0 0  0.15625 0 0  0.1875 0 0  0.21875 0 0  0.25 0 0  0.28125 0 0  0.3125 0 0  0.34375 0 0  0.375 0 0  0.40625 0 0  0.4375 0 0  0.46875 0 0  0.5 0 0  0.53125 0 0  0.5625 0 0  0.59375 0 0  0.625 0 0  0.65625 0 0  0.6875 0 0  0.71875 0 0  0.75 0 0  0.78125 0 0  0.8125 0 0  0.84375 0 0  0.875 0 0  0.90625 0 0  0.9375 0 0  0.96875 0 0  1 0 0  0 0.03125 0  0.03125 0.03125 0  0.0625 0.03125 0  0.09375 0.03125 0  0.125 0.03125 0  0.15625 0.03125 0  0.1875 0.03125 0  0.21875 0.03125 0  0.25 0.03125 0  0.28125 0.03125 0  0.3125 0.03125 0  0.34375 0.03125 0  0.375 0.03125 0  0.40625 0.03125 0  0.4375 0.03125 0  0.46875 0.03125 0  0.5 0.03125 0  0.53125 0.03125 0  0.5625 0.03125 0  0.59375 0.03125 0  0.625 0.03125 0  0.65625 0.03125 0  0.6875 0.03125 0  0.71875 0.03125 0  0.75 0.03125 0  0.78125 0.03125 0  0.8125 0.03125 0  0.84375 0.03125 0  0.875 0.03125 0  0.90625 0.03125 0  0.9375 0.03125 0  0.96875 0.03125 0  1 0.03125 0  0 0.0625 0  0.03125 0.0625 0  0.0625 0.0625 0  0.09375 0.0625 0  0.125 0.0625 0  0.15625 0.0625 0  0.1875 0.0625 0  0.21875 0.0625 0  0.25 0.0625 0  0.28125 0.0625 0  0.3125 0.0625 0  0.34375 0.0625 0  0.375 0.0625 0  0.40625 0.0625 0  0.4375 0.0625 0  0.46875 0.0625 0  0.5 0.0625 0  0.53125 0.0625 0  0.5625 0.0625 0  0.59375 0.0625 0  0.625 0.0625 0  0.65625 0.0625 0  0.6875 0.0625 0  0.71875 0.0625 0  0.75 0.0625 0  0.78125 0.0625 0  0.8125 0.0625 0  0.84375 0.0625 0  0.875 0.0625 0  0.90625 0.0625 0  0.9375 0.0625 0  0.96875 0.0625 0  1 0.0625 0  0 0.09375 0  0.03125 0.09375 0  0.0625 0.09375 0  0.09375 0.09375 0  0.125 0.09375 0  0.15625 0.09375 0  0.1875 0.09375 0  0.21875 0.09375 0  0.25 0.09375 0  0.28125 0.09375 0  0.3125 0.09375 0  0.34375 0.09375 0  0.375 0.09375 0  0.40625 0.09375 0  0.4375 0.09375 0  0.46875 0.09375 0  0.5 0.09375 0  0.53125 0.09375 0  0.5625 0.09375 0  0.59375 0.09375 0  0.625 0.09375 0  0.65625 0.09375 0  0.6875 0.09375 0  0.71875 0.09375 0  0.75 0.09375 0  0.78125 0.09375 0  0.8125 0.09375 0  0.84375 0.09375 0  0.875 0.09375 0  0.90625 0.09375 0  0.9375 0.09375 0  0.96875 0.09375 0  1 0.09375 0  0 0.125 0  0.03125 0.125 0  0.0625 0.125 0  0.09375 0.125 0  0.125 0.125 0  0.15625 0.125 0  0.1875 0.125 0  0.21875 0.125 0  0.25 0.125 0  0.28125 0.125 0  0.3125 0.125 0  0.34375 0.125 0  0.375 0.125 0  0.40625 0.125 0  0.4375 0.125 0  0.46875 0.125 0  0.5 0.125 0  0.53125 0.125 0  0.5625 0.125 0  0.59375 0.125 0  0.625 0.125 0  0.65625 0.125 0  0.6875 0.125 0  0.71875 0.125 0  0.75 0.125 0  0.78125 0.125 0  0.8125 0.125 0  0.84375 0.125 0  0.875 0.125 0  0.90625 0.125 0  0.9375 0.125 0  0.96875 0.125 0  1 0.125 0  0 0.15625 0  0.03125 0.15625 0  0.0625 0.15625 0  0.09375 0.15625 0  0.125 0.15625 0  0.15625 0.15625 0  0.1875 0.15625 0  0.21875 0.15625 0  0.25 0.15625 0  0.28125 0.15625 0  0.3125 0.15625 0  0.34375 0.15625 0  0.375 0.15625 0  0.40625 0.15625 0  0.4375 0.15625 0  0.46875 0.15625 0  0.5 0.15625 0  0.53125 0.15625 0  0.5625 0.15625 0  0.59375 0.15625 0  0.625 0.15625 0  0.65625 0.15625 0  0.6875 0.15625 0  0.71875 0.15625 0  0.75 0.15625 0  0.78125 0.15625 0  0.8125 0.15625 0  0.84375 0.15625 0  0.875 0.15625 0  0.90625 0.15625 0  0.9375 0.15625 0  0.96875 0.15625 0  1 0.15625 0  0 0.1875 0  0.03125 0.1875 0  0.0625 0.1875 0  0.09375 0.1875 0  0.125 0.1875 0  0.15625 0.1875 0  0.1875 0.1875 0  0.21875 0.1875 0  0.25 0.1875 0  0.28125 0.1875 0  0.3125 0.1875 0  0.34375 0.1875 0  0.375 0.1875 0  0.40625 0.1875 0  0.4375 0.1875 0  0.46875 0.1875 0  0.5 0.1875 0  0.53125 0.1875 0  0.5625 0.1875 0  0.59375 0.1875 0  0.625 0.1875 0  0.65625 0.1875 0  0.6875 0.1875 0  0.71875 0.1875 0  0.75 0.1875 0  0.78125 0.1875 0  0.8125 0.1875 0  0.84375 0.1875 0  0.875 0.1875 0  0.90625 0.1875 0  0.9375 0.1875 0  0.96875 0.1875 0  1 0.1875 0  0 0.21875 0  0.03125 0.21875 0  0.0625 0.21875 0  0.09375 0.21875 0  0.125 0.21875 0  0.15625 0.21875 0  0.1875 0.21875 0  0.21875 0.21875 0  0.25 0.21875 0  0.28125 0.21875 0  0.3125 0.21875 0  0.34375 0.21875 0  0.375 0.21875 0  0.40625 0.21875 0  0.4375 0.21875 0  0.46875 0.21875 0  0.5 0.21875 0  0.53125 0.21875 0  0.5625 0.21875 0  0.59375 0.21875 0  0.625 0.21875 0  0.65625 0.21875 0  0.6875 0.21875 0  0.71875 0.21875 0  0.75 0.21875 0  0.78125 0.21875 0  0.8125 0.21875 0  0.84375 0.21875 0  0.875 0.21875 0  0.90625 0.21875 0  0.9375 0.21875 0  0.96875 0.21875 0  1 0.21875 0  0 0.25 0  0.03125 0.25 0  0.0625 0.25 0  0.09375 0.25 0  0.125 0.25 0  0.15625 0.25 0  0.1875 0.25 0  0.21875 0.25 0  0.25 0.25 0  0.28125 0.25 0  0.3125 0.25 0  0.34375 0.25 0  0.375 0.25 0  0.40625 0.25 0  0.4375 0.25 0  0.46875 0.25 0  0.5 0.25 0  0.53125 0.25 0  0.5625 0.25 0  0.59375 0.25 0  0.625 0.25 0  0.65625 0.25 0  0.6875 0.25 0  0.71875 0.25 0  0.75 0.25 0  0.78125 0.25 0  0.8125 0.25 0  0.84375 0.25 0  0.875 0.25 0  0.90625 0.25 0  0.9375 0.25 0  0.96875 0.25 0  1 0.25 0  0 0.28125 0  0.03125 0.28125 0  0.0625 0.28125 0  0.09375 0.28125 0  0.125 0.28125 0  0.15625 0.28125 0  0.1875 0.28125 0  0.21875 0.28125 0  0.25 0.28125 0  0.28125 0.28125 0  0.3125 0.28125 0  0.34375 0.28125 0  0.375 0.28125 0  0.40625 0.28125 0  0.4375 0.28125 0  0.46875 0.28125 0  0.5 0.28125 0  0.53125 0.28125 0  0.5625 0.28125 0  0.59375 0.28125 0  0.625 0.28125 0  0.65625 0.28125 0  0.6875 0.28125 0  0.71875 0.28125 0  0.75 0.28125 0  0.78125 0.28125 0  0.8125 0.28125 0  0.84375 0.28125 0  0.875 0.28125 0  0.90625 0.28125 0  0.9375 0.28125 0  0.96875 0.28125 0  1 0.28125 0  0 0.3125 0  0.03125 0.3125 0  0.0625 0.3125 0  0.09375 0.3125 0  0.125 0.3125 0  0.15625 0.3125 0  0.1875 0.3125 0  0.21875 0.3125 0  0.25 0.3125 0  0.28125 0.3125 0  0.3125 0.3125 0  0.34375 0.3125 0  0.375 0.3125 0  0.40625 0.3125 0  0.4375 0.3125 0  0.46875 0.3125 0  0.5 0.3125 0  0.53125 0.3125 0  0.5625 0.3125 0  0.59375 0.3125 0  0.625 0.3125 0  0.65625 0.3125 0  0.6875 0.3125 0  0.71875 0.3125 0  0.75 0.3125 0  0.78125 0.3125 0  0.8125 0.3125 0  0.84375 0.3125 0  0.875 0.3125 0  0.90625 0.3125 0  0.9375 0.3125 0  0.96875 0.3125 0  1 0.3125 0  0 0.34375 0  0.03125 0.34375 0  0.0625 0.34375 0  0.09375 0.34375 0  0.125 0.34375 0  0.15625 0.34375 0  0.1875 0.34375 0  0.21875 0.34375 0  0.25 0.34375 0  0.28125 0.34375 0  0.3125 0.34375 0  0.34375 0.34375 0  0.375 0.34375 0  0.40625 0.34375 0  0.4375 0.34375 0  0.46875 0.34375 0  0.5 0.34375 0  0.53125 0.34375 0  0.5625 0.34375 0  0.59375 0.34375 0  0.625 0.34375 0  0.65625 0.34375 0  0.6875 0.34375 0  0.71875 0.34375 0  0.75 0.34375 0  0.78125 0.34375 0  0.8125 0.34375 0  0.84375 0.34375 0  0.875 0.34375 0  0.90625 0.34375 0  0.9375 0.34375 0  0.96875 0.34375 0  1 0.34375 0  0 0.375 0  0.03125 0.375 0  0.0625 0.375 0  0.09375 0.375 0  0.125 0.375 0  0.15625 0.375 0  0.1875 0.375 0  0.21875 0.375 0  0.25 0.375 0  0.28125 0.375 0  0.3125 0.375 0  0.34375 0.375 0  0.375 0.375 0  0.40625 0.375 0  0.4375 0.375 0  0.46875 0.375 0  0.5 0.375 0  0.53125 0.375 0  0.5625 0.375 0  0.59375 0.375 0  0.625 0.375 0  0.65625 0.375 0  0.6875 0.375 0  0.71875 0.375 0  0.75 0.375 0  0.78125 0.375 0  0.8125 0.375 0  0.84375 0.375 0  0.875 0.375 0  0.90625 0.375 0  0.9375 0.375 0  0.96875 0.375 0  1 0.375 0  0 0.40625 0  0.03125 0.40625 0  0.0625 0.40625 0  0.09375 0.40625 0  0.125 0.40625 0  0.15625 0.40625 0  0.1875 0.40625 0  0.21875 0.40625 0  0.25 0.40625 0  0.28125 0.40625 0  0.3125 0.40625 0  0.34375 0.40625 0  0.375 0.40625 0  0.40625 0.40625 0  0.4375 0.40625 0  0.46875 0.40625 0  0.5 0.40625 0  0.53125 0.40625 0  0.5625 0.40625 0  0.59375 0.40625 0  0.625 0.40625 0  0.65625 0.40625 0  0.6875 0.40625 0  0.71875 0.40625 0  0.75 0.40625 0  0.78125 0.40625 0  0.8125 0.40625 0  0.84375 0.40625 0  0.875 0.40625 0  0.90625 0.40625 0  0.9375 0.40625 0  0.96875 0.40625 0  1 0.40625 0  0 0.4375 0  0.03125 0.4375 0  0.0625 0.4375 0  0.09375 0.4375 0  0.125 0.4375 0  0.15625 0.4375 0  0.1875 0.4375 0  0.21875 0.4375 0  0.25 0.4375 0  0.28125 0.4375 0  0.3125 0.4375 0  0.34375 0.4375 0  0.375 0.4375 0  0.40625 0.4375 0  0.4375 0.4375 0  0.46875 0.4375 0  0.5 0.4375 0  0.53125 0.4375 0  0.5625 0.4375 0  0.59375 0.4375 0  0.625 0.4375 0  0.65625 0.4375 0  0.6875 0.4375 0  0.71875 0.4375 0  0.75 0.4375 0  0.78125 0.4375 0  0.8125 0.4375 0  0.84375 0.4375 0  0.875 0.4375 0  0.90625 0.4375 0  0.9375 0.4375 0  0.96875 0.4375 0  1 0.4375 0  0 0.46875 0  0.03125 0.46875 0  0.0625 0.46875 0  0.09375 0.46875 0  0.125 0.46875 0  0.15625 0.46875 0  0.1875 0.46875 0  0.21875 0.46875 0  0.25 0.46875 0  0.28125 0.46875 0  0.3125 0.46875 0  0.34375 0.46875 0  0.375 0.46875 0  0.40625 0.46875 0  0.4375 0.46875 0  0.46875 0.46875 0  0.5 0.46875 0  0.53125 0.46875 0  0.5625 0.46875 0  0.59375 0.46875 0  0.625 0.46875 0  0.65625 0.46875 0  0.6875 0.46875 0  0.71875 0.46875 0  0.75 0.46875 0  0.78125 0.46875 0  0.8125 0.46875 0  0.84375 0.46875 0  0.875 0.46875 0  0.90625 0.46875 0  0.9375 0.46875 0  0.96875 0.46875 0  1 0.46875 0  0 0.5 0  0.03125 0.5 0  0.0625 0.5 0  0.09375 0.5 0  0.125 0.5 0  0.15625 0.5 0  0.1875 0.5 0  0.21875 0.5 0  0.25 0.5 0  0.28125 0.5 0  0.3125 0.5 0  0.34375 0.5 0  0.375 0.5 0  0.40625 0.5 0  0.4375 0.5 0  0.46875 0.5 0  0.5 0.5 0  0.53125 0.5 0  0.5625 0.5 0  0.59375 0.5 0  0.625 0.5 0  0.65625 0.5 0  0.6875 0.5 0  0.71875 0.5 0  0.75 0.5 0  0.78125 0.5 0  0.8125 0.5 0  0.84375 0.5 0  0.875 0.5 0  0.90625 0.5 0  0.9375 0.5 0  0.96875 0.5 0  1 0.5 0  0 0.53125 0  0.03125 0.53125 0  0.0625 0.53125 0  0.09375 0.53125 0  0.125 0.53125 0  0.15625 0.53125 0  0.1875 0.53125 0  0.21875 0.53125 0  0.25 0.53125 0  0.28125 0.53125 0  0.3125 0.53125 0  0.34375 0.53125 0  0.375 0.53125 0  0.40625 0.53125 0  0.4375 0.53125 0  0.46875 0.53125 0  0.5 0.53125 0  0.53125 0.53125 0  0.5625 0.53125 0  0.59375 0.53125 0  0.625 0.53125 0  0.65625 0.53125 0  0.6875 0.53125 0  0.71875 0.53125 0  0.75 0.53125 0  0.78125 0.531
[...]
<PointData  Scalars="ControlVisualisation"> 
<DataArray  type="Float64"  Name="ControlVisualisation"  format="ascii">4.9592978458197934e-01  4.9381892058083088e-01  4.8493200918222767e-01  4.7290078882366438e-01  4.5828861713723834e-01  4.3898994989607437e-01  4.1890342110368367e-01  3.9846614839257388e-01  3.7781530691579424e-01  3.5821935198614124e-01  3.3992821510547433e-01  3.2489022265929396e-01  3.1141532230699898e-01  3.0134463552718832e-01  2.9444301695629171e-01  2.9069182490600920e-01  2.9035938033513203e-01  2.9327513577552927e-01  2.9974674505459126e-01  3.0888249196474782e-01  3.2171388594010114e-01  3.3700934942893274e-01  3.5453695214925918e-01  3.7453347095860101e-01  3.9554206169702083e-01  4.1747351610193023e-01  4.3874216596878740e-01  4.5878769224330218e-01  4.7705081392651849e-01  4.9151744785551205e-01  5.0262785271375165e-01  5.1005881156688082e-01  5.1094783499686003e-01  4.9609120352899366e-01  4.9113380073896146e-01  4.8270019739907760e-01  4.7260424195084333e-01  4.5489834313617639e-01  4.3859968430248220e-01  4.1876670507238622e-01  3.9688644424355313e-01  3.7671725631724440e-01  3.5584521636123256e-01  3.3928993816711484e-01  3.2182382158528361e-01  3.0950157680231510e-01  2.9902243551686081e-01  2.9190284531402277e-01  2.8855902765223362e-01  2.8791264698737584e-01  2.9142597806035447e-01  2.9704593180101929e-01  3.0766561218007277e-01  3.1944078217161959e-01  3.3579377353214684e-01  3.5410427181670084e-01  3.7334317876873963e-01  3.9534877481861663e-01  4.1617889104975569e-01  4.3859945241252113e-01  4.5807325089140927e-01  4.7535655926246079e-01  4.9158705728291707e-01  5.0113001188126205e-01  5.0798877452297431e-01  5.1212063203499036e-01  4.9522958501992081e-01  4.8848505835066064e-01  4.9001572042616198e-01  4.7203130559742168e-01  4.5603073467199856e-01  4.3726838341185698e-01  4.1641981953680574e-01  3.9508724536367013e-01  3.7264991908979850e-01  3.5416611081160493e-01  3.3397889124498464e-01  3.1839006091283678e-01  3.0501314949022607e-01  2.9428639551405578e-01  2.8789455447723250e-01  2.8314359490845242e-01  2.8351700358793575e-01  2.8560911659976873e-01  2.9290946532617712e-01  3.0166688257620855e-01  3.1514084608955673e-01  3.3028454203820107e-01  3.4944104076995935e-01  3.7028806573373302e-01  3.9170552728195907e-01  4.1503063586069255e-01  4.3536650847364755e-01  4.5755010092172016e-01  4.7598369954969688e-01  4.9019537808433161e-01  5.0600739411817219e-01  5.0627318130129206e-01  5.1165934648960121e-01  4.9440493068043795e-01  4.8998982769761790e-01  4.8229509029778300e-01  4.6886618352122489e-01  4.5303628955510034e-01  4.3282296875187132e-01  4.1309625160185193e-01  3.9050312742199383e-01  3.6954689584643330e-01  3.4834920605706482e-01  3.3047268801019464e-01  3.1366132453228113e-01  2.9912715921387617e-01  2.9039824053424462e-01  2.8109089294226269e-01  2.7830332212735676e-01  2.7760880463258714e-01  2.8049764388251808e-01  2.8612148362858081e-01  2.9740605362198236e-01  3.0883128312824554e-01  3.2539391356043479e-01  3.4423111039259224e-01  3.6471212548769899e-01  3.8718549460301876e-01  4.1085937272171391e-01  4.3339746727232692e-01  4.5275136717633541e-01  4.7372482662809445e-01  4.8694369386730152e-01  5.0014968492171574e-01  5.0831675510079422e-01  5.1000290411140026e-01  4.9310730965805322e-01  4.8836870844669145e-01  4.8179960151972839e-01  4.6625677461149634e-01  4.5265264672570849e-01  4.3194800921788823e-01  4.0838738673801894e-01  3.8613055650930506e-01  3.6310147091229350e-01  3.4217573939199608e-01  3.2312549054921830e-01  3.0411686624460271e-01  2.9236905469215518e-01  2.8086351922994635e-01  2.7409043001798111e-01  2.6994173162687796e-01  2.6950285982671174e-01  2.7230336917017528e-01  2.7906158156991734e-01  2.8838513372798319e-01  3.0188813689456812e-01  3.1676200472921040e-01  3.3723721903068193e-01  3.5765778241597995e-01  3.8081696268186332e-01  4.0479863385923065e-01  4.2890925474645353e-01  4.5142759139208261e-01  4.7123982175416662e-01  4.8662140628766815e-01  4.9948675248357244e-01  5.0647646492138643e-01  5.0807034514675276e-01  4.9031685292938759e-01  4.8741774330126403e-01  4.7933449895701175e-01  4.6336662586421495e-01  4.4729877593890965e-01  4.2391492157135208e-01  4.0258632150570201e-01  3.7908906570605971e-01  3.5474748401264117e-01  3.3247569758925899e-01  3.1301559770209536e-01  2.9581176917532215e-01  2.8228748079895388e-01  2.7213598243828757e-01  2.6453174664583912e-01  2.6062048945430916e-01  2.6160102812734426e-01  2.6285244396382695e-01  2.6875424757123528e-01  2.7947870545106857e-01  2.9066215354708619e-01  3.0791763528955868e-01  3.2750665615083968e-01  3.4828000669199416e-01  3.7273849907365991e-01  3.9741239949021639e-01  4.2199996887552566e-01  4.4384747351495263e-01  4.6662764524133660e-01  4.8186390247849570e-01  4.9662067823911238e-01  5.0156288551204309e-01  5.0634611623532011e-01  4.8754996130946454e-01  4.8465164402753852e-01  4.7601007306261567e-01  4.5957032961482464e-01  4.4178033450377857e-01  4.1837567796037012e-01  3.9602028250741234e-01  3.6921793029182159e-01  3.4288062204888381e-01  3.2249104504544723e-01  3.0272746529228994e-01  2.8435101811213548e-01  2.7093096486536117e-01  2.6152786740412909e-01  2.5366685039943515e-01  2.5076621635744412e-01  2.4900139306879759e-01  2.5239031441882653e-01  2.5713047095472280e-01  2.6702332087245473e-01  2.7850392590455375e-01  2.9312863778029297e-01  3.1579532414987199e-01  3.3658825318499008e-01  3.6006686704549251e-01  3.8769045662068941e-01  4.1336184906807827e-01  4.3845808108697548e-01  4.6011045222172708e-01  4.7726550669943374e-01  4.9075985441565978e-01  4.9821932549689657e-01  5.0300275528290161e-01  4.8422992710233065e-01  4.8049600764947981e-01  4.7043312388391906e-01  4.5459168276847362e-01  4.3397433739226282e-01  4.1103549425693736e-01  3.8508734575225906e-01  3.5637330618375984e-01  3.3256150416272717e-01  3.1018575105191498e-01  2.8829224274248400e-01  2.7142571325892206e-01  2.5747403493207288e-01  2.4950000388355778e-01  2.4105015783695277e-01  2.3837132353430046e-01  2.3860073391440556e-01  2.3940428595179417e-01  2.4488943511085798e-01  2.5332962484198285e-01  2.6475447252668599e-01  2.7959878184758014e-01  2.9887728722374329e-01  3.2338120231762812e-01  3.4786114208761537e-01  3.7426726414281880e-01  4.0249913592457970e-01  4.2859419837751339e-01  4.5235538911653383e-01  4.7052584922796281e-01  4.8635185117595109e-01  4.9464390499381999e-01  4.9731862685237943e-01  4.8051654963227214e-01  4.7361167767961854e-01  4.6582812986380367e-01  4.4844388433560911e-01  4.2661676113322888e-01  4.0022014796065308e-01  3.7252055394379713e-01  3.4531638088293481e-01  3.1841087795590345e-01  2.9208439870194991e-01  2.7342692906524463e-01  2.5338752098412776e-01  2.4322283839355710e-01  2.3339724995069772e-01  2.2711163408303814e-01  2.2541860050106954e-01  2.2307913141157182e-01  2.2600872227654553e-01  2.2929728295379714e-01  2.3737578410152607e-01  2.4700186701095878e-01  2.6155811136033874e-01  2.8256414933350704e-01  3.0330478088272012e-01  3.3246508321920937e-01  3.6067344279607544e-01  3.8915896176224818e-01  4.1734558915446252e-01  4.4221037756600512e-01  4.6271173679745753e-01  4.7970674586525525e-01  4.8779350602699584e-01  4.9139892740193514e-01  4.7509288625223556e-01  4.6853457880169858e-01  4.5936537616716738e-01  4.4105749136680905e-01  4.1665728305509092e-01  3.8962950258766565e-01  3.6084513660585188e-01  3.3030633834385986e-01  2.9889737463156146e-01  2.7503728407460498e-01  2.5253854299041190e-01  2.3591889759172913e-01  2.2417582302109015e-01  2.1635827801884849e-01  2.1198453396923295e-01  2.0781885300600716e-01  2.0957908802646780e-01  2.0715486874550643e-01  2.1353322734111488e-01  2.1797821362782402e-01  2.2734006906596252e-01  2.4031328353007458e-01  2.6093331658566182e-01  2.8444718470376151e-01  3.1144961203297533e-01  3.4438226023288043e-01  3.7411768212039026e-01  4.0540999323138860e-01  4.3144650679021479e-01  4.5244981312770488e-01  4.7100481293357582e-01  4.8064343108806679e-01  4.8448808110308594e-01  4.6939134557190620e-01  4.6179959981298818e-01  4.5325790351076167e-01  4.3261287478723476e-01  4.0798743661255343e-01  3.7741945922130121e-01  3.4620841366892874e-01  3.1080422809812219e-01  2.8086266331796006e-01  2.5160804870302284e-01  2.3128757222786434e-01  2.1170802639441727e-01  2.0329915483240160e-01  1.9658995916621982e-01  1.9106178017282810e-01  1.9126199302971170e-01  1.8895725866183188e-01  1.9203777321497861e-01  1.9017873510500286e-01  1.9907700531376002e-01  2.0471860229301236e-01  2.1685910599334882e-01  2.3744788702312722e-01  2.6060974236800538e-01  2.9208465898837493e-01  3.2466524316454565e-01  3.5878395145127751e-01  3.9013683974314456e-01  4.2097679766873158e-01  4.4285118704106990e-01  4.6252024747825726e-01  4.7238620883950233e-01  4.7669615104470053e-01  4.6313403414184107e-01  4.5680449684518204e-01  4.4538342670054620e-01  4.2535580491628316e-01  3.9639447546861400e-01  3.6527336269237654e-01  3.2895011871955798e-01  2.9382910749862118e-01  2.5700541192234672e-01  2.2692504058634957e-01  2.0273356670333031e-01  1.8582361017547380e-01  1.7775157316634882e-01  1.7138448239642456e-01  1.7136934142224811e-01  1.6759636618610874e-01  1.6987741657434152e-01  1.6784094151014944e-01  1.7172758554526593e-01  1.7196759961549107e-01  1.7969161344962692e-01  1.9046193183835625e-01  2.0990762842207308e-01  2.3532049704715494e-01  2.6747055430579408e-01  3.0569593147535912e-01  3.4061910007142199e-01  3.7628411785837934e-01  4.0694001652247075e-01  4.3328571014501355e-01  4.5220028541736657e-01  4.6400098715472243e-01  4.6847868087355260e-01  4.5754868687448808e-01  4.5039024612320649e-01  4.4024691393503579e-01  4.1586151481554090e-01  3.8739825260886573e-01  3.5284657318894830e-01  3.1427584389048863e-01  2.7242975767548383e-01  2.3118752065930445e-01  1.9698997779543664e-01  1.7074558899421741e-01  1.5206450054278889e-01  1.4705564640871632e-01  1.4239057291053842e-01  1.4180313448262186e-01  1.4378090576581801e-01  1.4274661645883588e-01  1.4414717116636994e-01  1.4376579291685920e-01  1.4572180515832703e-01  1.4972024022158664e-01  1.5871746819019522e-01  1.7977308976830314e-01  2.0684226991613366e-01  2.4277890777874678e-01  2.8322914234211005e-01  3.2371615496264422e-01  3.6150707476993793e-01  3.9489759058546625e-01  4.2162401469651706e-01  4.4409392575858603e-01  4.5508103769012570e-01  4.6018697677702258e-01  4.5260026501426665e-01  4.4666950664836047e-01  4.3374346038969236e-01  4.1053758428236192e-01  3.7960263228599833e-01  3.4245762367767973e-01  2.9826633314697454e-01  2.5206200938306483e-01  2.0671935413551629e-01  1.6398501270033847e-01  1.3138252298787606e-01  1.1279114897230826e-01  1.0790642998133343e-01  1.0600001781858419e-01  1.0739708153032468e-01  1.0946823957067864e-01  1.1289176313317298e-01  1.1426171351891756e-01  1.1594305224923900e-01  1.1477811911725340e-01  1.1653009412329016e-01  1.2479546024952140e-01  1.4565151597429954e-01  1.7703091217245706e-01  2.1937290186432362e-01  2.6359280012780278e-01  3.0644436314365808e-01  3.4910206018189482e-01  3.8444405095823186e-01  4.1292988451270501e-01  4.3480999397531284e-01  4.4782044530708387e-01  4.5238942491488165e-01  4.4947399868273624e-01  4.4312884748996262e-01  4.3063152431936991e-01  4.0482653227783261e-01  3.7224152841568070e-01  3.3287747521957400e-01  2.8493901249895903e-01  2.3580368580925998e-01  1.8066945532848211e-01  1.2871162447502332e-01  8.5899562971948229e-02  6.2425576910254597e-02  5.9015400186773086e-02  5.9727646404980815e-02  6.4524654177098545e-02  6.5027271275274273e-02  7.1273703837242991e-02  8.0746559707827417e-02  8.2738737693105122e-02  8.1509851988028376e-02  7.9578853228628343e-02  8.5353329983475071e-02  1.0998019327135510e-01  1.4602817480209138e-01  1.9423860908700236e-01  2.4600693696069370e-01  2.9227828550815915e-01  3.3729188097775431e-01  3.7441787270382215e-01  4.0480307909489632e-01  4.2793376300296143e-01  4.4087328064736125e-01  4.4590008897484090e-01  4.4810698915523861e-01  4.4171538027353535e-01  4.2851828003327680e-01  4.0149512780319729e-01  3.6990279516803382e-01  3.2567546866597730e-01  2.7760215039331276e-01  2.2185393387703142e-01  1.6256651172784992e-01  1.0071571438431597e-01  4.4314713729034526e-02  7.8556524486775078e-03  2.4499610843388073e-03  1.5043546356156734e-03  1.3260524066963564e-03  1.0708628972062571e-03  1.0548283223567765e-02  3.9074903277633966e-02  4.5913293220963054e-02  4.4114137210721133e-02  4.0489719556310019e-02  4.4171960665452051e-02  7.3165644536523591e-02  1.2141130701588647e-01  1.7402165871036898e-01  2.3046380161770069e-01  2.8196903395025547e-01  3.2797239589145416e-01  3.6882171224063287e-01  3.9762469712049436e-01  4.2287781433773491e-01  4.3574916302673522e-01  4.4090934486542843e-01  4.4850313018399723e-01  4.4288254657950032e-01  4.2845779803058121e-01  4.0340867670865932e-01  3.6675612776937855e-01  3.2790629312030678e-01  2.7320853544862461e-01  2.2124888642079080e-01  1.5711324494825937e-01  9.5819167294109803e-02  3.8590623614580814e-02  7.3580803090406675e-03  3.0870922647101826e-03  1.7814702850694536e-03  1.2203977162316905e-03  6.7533093222331094e-04  5.7299867286552981e-04  6.1325427072376072e-04  1.0736275954196708e-03  1.8842658850846538e-03  3.5067749821039202e-03  9.2113552742078206e-03  4.6612869247939080e-02  1.0486674477959250e-01  1.6565882108129937e-01  2.2507606406969893e-01  2.7555661534532089e-01  3.2664252244399422e-01  3.6289712080250686e-01  3.9686838603361635e-01  4.1853601734889057e-01  4.3327135503345404e-01  4.3779379447765499e-01  4.5130744569591202e-01  4.4499009555395569e-01  4.3153800859208036e-01  4.0408443843380953e-01  3.7199878722698992e-01  3.2740140445500437e-01  2.7903763439302581e-01  2.2385707563731225e-01  1.6697713577088552e-01  1.1068945490406737e-01  6.3880245055420976e-02  3.6444771387980524e-02  3.5937038443652446e-02  4.4096552335386376e-02  4.9632336176603335e-02  4.9034440460691699e-02  3.7996581309997467e-02  1.9670880279685451e-03  1.3813950420000472e-03  1.5806802306782303e-03  2.2415390312824860e-03  6.1314933422424505e-03  4.8767424150294170e-02  1.0643563264866998e-01  1.6701616977811354e-01  2.2575672703726438e-01  2.7768587158498165e-01  3.2423139816665786e-01  3.6505292855278387e-01  3.9381809503532872e-01  4.1917183071504138e-01  4.3186901850328874e-01  4.3702939813301650e-01  4.5582751335636390e-01  4.4939618528588476e-01  4.3661827252345148e-01  4.1001083075970512e-01  3.7664027040275294e-01  3.3672330165399639e-01  2.8764039963042043e-01  2.3795561702909071e-01  1.8542820207968649e-01  1.3797378331707297e-01  1.0130794420789195e-01  8.1498925410931414e-02  7.8152359094644880e-02  8.2901375283525314e-02  8.7452561948720212e-02  8.8434726917156287e-02  8.2058497618324136e-02  7.0916070051384464e-02  6.5635288313429269e-02  6.1220166526889039e-02  5.8737044151093300e-02  6.2291402972035621e-02  8.7439357948255039e-02  1.3282734230701065e-01  1.8396951713985676e-01  2.3598123433646082e-01  2.8492316035351933e-01  3.3017688207019064e-01  3.6727740555555133e-01  3.9779072679518740e-01  4.2012943289266180e-01  4.3331496013882814e-01  4.3828145206789815e-01  4.6170983524079229e-01  4.5589647797752814e-01  4.4253168475431348e-01  4.1813931013019262e-01  3.8577434551297946e-01  3.4766957291449202e-01  3.0271408547035050e-01  2.5542848330316587e-01  2.0977315596136029e-01  1.6887012921798639e-01  1.3926682427048923e-01  1.2130603668595491e-01  1.1655539535164400e-01  1.1674965464842763e-01  1.2071913921170888e-01  1.2170190796545420e-01  1.2048105634603291e-01  1.1473213050197162e-01  1.1147067770174718e-01  1.0778093324559611e-01  1.0735612476882427e-01  1.1193357549086647e-01  1.3352588529178183e-01  1.6595241480708994e-01  2.0575397941283929e-01  2.5435585085478624e-01  2.9733229837587632e-01  3.3939398906669088e-01  3.7446486745793722e-01  4.0209669378240143e-01  4.2438607849350013e-01  4.3684713601720032e-01  4.4128326177618138e-01  4.6915447583138448e-01  4.6189166135193227e-01  4.5131263443150366e-01  4.2586978409167098e-01  3.9594329683109458e-01  3.5971978423880152e-01  3.1928010724586459e-01  2.7598202103407360e-01  2.3459293048037411e-01  1.9899038202907413e-01  1.7421202244499884e-01  1.5636329856384035e-01  1.5098943929958239e-01  1.4894504941590317e-01  1.4915809499705851e-01  1.5105044378538487e-01  1.4822229459971573e-01  1.4835959344590194e-01  1.4588600852753561e-01  1.4571280591047056e-01  1.4800270398699705e-01  1.5364425034592372e-01  1.7397943597389490e-01  1.9599723835365965e-01  2.3379476407435448e-01  2.7341937079235634e-01  3.1231287393869323e-01  3.4954530436817699e-01  3.8222225927683917e-01  4.0873317247082430e-01  4.2976849941028239e-01  4.4093175174491211e-01  4.4611169809134371e-01  4.7668120493249611e-01  4.7074550676695204e-01  4.5871371350855394e-01  4.3719724149833350e-01  4.0663882221092973e-01  3.7447817525407928e-01  3.3663956077949941e-01  2.9860778380292047e-01  2.6036333507804132e-01  2.2952299550075717e-01  2.0443638011746451e-01  1.8890781726034511e-01  1.8012925459795676e-01  1.7566287109919498e-01  1.7596637539210933e-01  1.7519294364160473e-01  1.7496516367172785e-01  1.7470753462124242e-01  1.7650303583985827e-01  1.7657691940284645e-01  1.8062916800129761e-01  1.9026441277238326e-01  2.0513396340140647e-01  2.2941497148623305e-01  2.5954815596262171e-01  2.9510270196059640e-01  3.2884047043707310e-01  3.6362703491945481e-01  3.9293616265239306e-01  4.1706835255987823e-01  4.3625442874299375e-01  4.4753130306514288e-01  4.5133000090567083e-01  4.8445068222110110e-01  4.7732845336337398e-01  4.6843280280177735e-01  4.4637014798560137e-01  4.2007030451522920e-01  3.8775190980390267e-01  3.5539565966912906e-01  3.1848665319126584e-01  2.8622335013592498e-01  2.5536855668454245e-01  2.3432933110414128e-01  2.1487680747673826e-01  2.0702526675739780e-01  2.0088267142181715e-01  1.9651115534809344e-01  1.9785778113102839e-01  1.9694127070582459e-01  1.9863309240567803e-01  1.9846954885185508e-01  2.0410105839773504e-01  2.0988616535152019e-01  2.1805047029375302e-01  2.3734791764358967e-01  2.5660566658426442e-01  2.8551144237288434e-01  3.1498314951678635e-01  3.4713709681630567e-01  3.7648740550795051e-01  4.0330243510101271e-01  4.2552500113143282e-01  4.4390464202408592e-01  4.5330251526286425e-01  4.5725724299256887e-01  4.9104792134309871e-01  4.8566024913205974e-01  4.7593962569745091e-01  4.5641440580889303e-01  4.3085738114905736e-01  4.0222781183496331e-01  3.7158277622300506e-01  3.3890260125799915e-01  3.0699726446490916e-01  2.8155624359026477e-01  2.5788211391339566e-01  2.4121170015103835e-01  2.2917536105074982e-01  2.2319078917459204e-01  2.1859172426308263e-01  2.1638967014464497e-01  2.1712529053545460e-01  2.1769652534002701e-01  2.2073451307810588e-01  2.2676210554438175e-01  2.3217063090889947e-01  2.4460670449329902e-01  2.6028143640004642e-01  2.8201531274507224e-01  3.0484337328750388e-01  3.3361286246439542e-01  3.6203710281359197e-01  3.8801780526632673e-01  4.1435837134844278e-01  4.3378115704610037e-01  4.5049304508131099e-01  4.5973266396891976e-01  4.6294069983936820e-01  4.9708532454423193e-01  4.9182501439770232e-01  4.8388547337633053e-01  4.6424791378208508e-01  4.4198739289557015e-01  4.1493143533033156e-01  3.8566167076057140e-01  3.5698340215218655e-01  3.2751529594552037e-01  3.0170569266834180e-01  2.8172288707334509e-01  2.6199909277992817e-01  2.5098716276244909e-01  2.4191146096448898e-01  2.3620890204017653e-01  2.3455667346171874e-01  2.3293552298973835e-01  2.3550536400042169e-01  2.3807110400206249e-01  2.4503426533355252e-01  2.5341702595349647e-01  2.6431993132198028e-01  2.8354493593153274e-01  3.0126036124348937e-01  3.2446841697028500e-01  3.5221558900253275e-01  3.7519825576636240e-01  4.0214000292914287e-01  4.2456793903715501e-01  4.4120083750046757e-01  4.5806549517332568e-01  4.6598264328467515e-01  4.6795542404619533e-01  5.0149480727503426e-01  4.9875167060625630e-01  4.8893069013339890e-01  4.721193736